# vtk DataFile Version 4.0
vtk output
ASCII
DATASET POLYDATA
POINTS 150 long
0 0 0 0 0 1 0 0 2 
0 1 0 0 1 1 0 1 2 
0 2 0 0 2 1 0 2 2 
0 3 0 0 3 1 0 3 2 
0 4 0 0 4 1 0 4 2 
1 0 0 1 0 1 1 0 2 
1 1 0 1 1 1 1 1 2 
1 2 0 1 2 1 1 2 2 
1 3 0 1 3 1 1 3 2 
1 4 0 1 4 1 1 4 2 
2 0 0 2 0 1 2 0 2 
2 1 0 2 1 1 2 1 2 
2 2 0 2 2 1 2 2 2 
2 3 0 2 3 1 2 3 2 
2 4 0 2 4 1 2 4 2 
3 0 0 3 0 1 3 0 2 
3 1 0 3 1 1 3 1 2 
3 2 0 3 2 1 3 2 2 
3 3 0 3 3 1 3 3 2 
3 4 0 3 4 1 3 4 2 
4 0 0 4 0 1 4 0 2 
4 1 0 4 1 1 4 1 2 
4 2 0 4 2 1 4 2 2 
4 3 0 4 3 1 4 3 2 
4 4 0 4 4 1 4 4 2 
5 0 0 5 0 1 5 0 2 
5 1 0 5 1 1 5 1 2 
5 2 0 5 2 1 5 2 2 
5 3 0 5 3 1 5 3 2 
5 4 0 5 4 1 5 4 2 
6 0 0 6 0 1 6 0 2 
6 1 0 6 1 1 6 1 2 
6 2 0 6 2 1 6 2 2 
6 3 0 6 3 1 6 3 2 
6 4 0 6 4 1 6 4 2 
7 0 0 7 0 1 7 0 2 
7 1 0 7 1 1 7 1 2 
7 2 0 7 2 1 7 2 2 
7 3 0 7 3 1 7 3 2 
7 4 0 7 4 1 7 4 2 
8 0 0 8 0 1 8 0 2 
8 1 0 8 1 1 8 1 2 
8 2 0 8 2 1 8 2 2 
8 3 0 8 3 1 8 3 2 
8 4 0 8 4 1 8 4 2 
9 0 0 9 0 1 9 0 2 
9 1 0 9 1 1 9 1 2 
9 2 0 9 2 1 9 2 2 
9 3 0 9 3 1 9 3 2 
9 4 0 9 4 1 9 4 2 

VERTICES 150 300
1 0 
1 1 
1 2 
1 3 
1 4 
1 5 
1 6 
1 7 
1 8 
1 9 
1 10 
1 11 
1 12 
1 13 
1 14 
1 15 
1 16 
1 17 
1 18 
1 19 
1 20 
1 21 
1 22 
1 23 
1 24 
1 25 
1 26 
1 27 
1 28 
1 29 
1 30 
1 31 
1 32 
1 33 
1 34 
1 35 
1 36 
1 37 
1 38 
1 39 
1 40 
1 41 
1 42 
1 43 
1 44 
1 45 
1 46 
1 47 
1 48 
1 49 
1 50 
1 51 
1 52 
1 53 
1 54 
1 55 
1 56 
1 57 
1 58 
1 59 
1 60 
1 61 
1 62 
1 63 
1 64 
1 65 
1 66 
1 67 
1 68 
1 69 
1 70 
1 71 
1 72 
1 73 
1 74 
1 75 
1 76 
1 77 
1 78 
1 79 
1 80 
1 81 
1 82 
1 83 
1 84 
1 85 
1 86 
1 87 
1 88 
1 89 
1 90 
1 91 
1 92 
1 93 
1 94 
1 95 
1 96 
1 97 
1 98 
1 99 
1 100 
1 101 
1 102 
1 103 
1 104 
1 105 
1 106 
1 107 
1 108 
1 109 
1 110 
1 111 
1 112 
1 113 
1 114 
1 115 
1 116 
1 117 
1 118 
1 119 
1 120 
1 121 
1 122 
1 123 
1 124 
1 125 
1 126 
1 127 
1 128 
1 129 
1 130 
1 131 
1 132 
1 133 
1 134 
1 135 
1 136 
1 137 
1 138 
1 139 
1 140 
1 141 
1 142 
1 143 
1 144 
1 145 
1 146 
1 147 
1 148 
1 149 

POINT_DATA 150
SCALARS scalars double
LOOKUP_TABLE default
0.0873108 0.202741 0.841417 0.889215 0.0367427 0.921704 0.240024 0.0220468 0.361817 
0.875219 0.779264 0.0536974 0.257454 0.952432 0.563353 0.957687 0.785543 0.44408 
0.132898 0.895379 0.814363 0.599336 0.220281 0.362745 0.754525 0.304573 0.607864 
0.0983677 0.850382 0.209652 0.947246 0.131178 0.455738 0.32287 0.674719 0.0160236 
0.160583 0.44183 0.0447728 0.515337 0.330891 0.888633 0.489876 0.821028 0.0601907 
0.908487 0.534456 0.872646 0.00455907 0.147396 0.256557 0.177348 0.913631 0.863797 
0.847016 0.843705 0.522468 0.364252 0.258968 0.0267308 0.444675 0.219849 0.306183 
0.509622 0.638972 0.937357 0.971279 0.630063 0.674711 0.613621 0.888159 0.29801 
0.886379 0.453726 0.727074 0.497375 0.814025 0.683882 0.99557 0.275768 0.337855 
0.755233 0.496695 0.584 0.277653 0.919142 0.483452 0.996201 0.166009 0.467371 
0.826738 0.0141561 0.297171 0.264605 0.85801 0.148615 0.429174 0.200669 0.33299 
0.490142 0.065133 0.809044 0.633282 0.784747 0.651662 0.75573 0.676925 0.981195 
0.319531 0.948799 0.307209 0.00820387 0.604034 0.741342 0.0176993 0.686956 0.190961 
0.756827 0.211884 0.593376 0.277564 0.469412 0.961072 0.115411 0.68094 0.411234 
0.660059 0.639009 0.0498375 0.0271613 0.553629 0.642327 0.780578 0.951061 0.465168 
0.447272 0.619631 0.971136 0.887673 0.0286485 0.289286 0.0909899 0.882791 0.537826 
0.290695 0.0513886 0.504697 0.608664 0.128069 0.558982 
