# vtk DataFile Version 4.0
vtk output
ASCII
DATASET STRUCTURED_GRID
DIMENSIONS 3 5 1POINTS 15 float
0 0 1
1 0 1
2 0 1
0 1 1
1 1 1
2 1 1
0 2 1
1 2 1
2 2 1
0 3 1
1 3 1
2 3 1
0 4 1
1 4 1
2 4 1

POINT_DATA 15
SCALARS scalars float
LOOKUP_TABLE default
0.162935066751
0.502991914267
0.484459300282
0.260587531748
0.312905432714
0.174067985494
0.341179574964
0.430227131778
0.0775047655413
0.822173959301
0.258619227843
0.639696881112
0.432448225346
0.79034753461
0.790188541155
