# vtk DataFile Version 4.1
vtk output
ASCII
DATASET UNSTRUCTURED_GRID
POINTS 100 double
0 0 0 1 0 0 2 0 0 
3 0 0 4 0 0 5 0 0 
6 0 0 7 0 0 8 0 0 
9 0 0 0 1 0 1 1 0 
2 1 0 3 1 0 4 1 0 
5 1 0 6 1 0 7 1 0 
8 1 0 9 1 0 0 2 0 
1 2 0 2 2 0 3 2 0 
4 2 0 5 2 0 6 2 0 
7 2 0 8 2 0 9 2 0 
0 3 0 1 3 0 2 3 0 
3 3 0 4 3 0 5 3 0 
6 3 0 7 3 0 8 3 0 
9 3 0 0 4 0 1 4 0 
2 4 0 3 4 0 4 4 0 
5 4 0 6 4 0 7 4 0 
8 4 0 9 4 0 0 5 0 
1 5 0 2 5 0 3 5 0 
4 5 0 5 5 0 6 5 0 
7 5 0 8 5 0 9 5 0 
0 6 0 1 6 0 2 6 0 
3 6 0 4 6 0 5 6 0 
6 6 0 7 6 0 8 6 0 
9 6 0 0 7 0 1 7 0 
2 7 0 3 7 0 4 7 0 
5 7 0 6 7 0 7 7 0 
8 7 0 9 7 0 0 8 0 
1 8 0 2 8 0 3 8 0 
4 8 0 5 8 0 6 8 0 
7 8 0 8 8 0 9 8 0 
0 9 0 1 9 0 2 9 0 
3 9 0 4 9 0 5 9 0 
6 9 0 7 9 0 8 9 0 
9 9 0 
CELL_TYPES 0

POINT_DATA 100
SCALARS vz double
LOOKUP_TABLE default
0.2767562151 0.7130608164 0.65017936899 0.76607654668 0.96549602242 0.4734543025 0.83318630067 0.95149030142 0.044289470029 
0.94566697051 0.25552520898 0.26680804765 0.55815183589 0.39013135745 0.84632807228 0.43961763555 0.73365338281 0.017675478075 
0.0065620905559 0.088153023002 0.56969944896 0.30336908403 0.74674192515 0.37643368948 0.37847794812 0.34118516806 0.60371985718 
0.24220857885 0.21738810722 0.41722346905 0.29934027967 0.97437458706 0.33207081318 0.66253432005 0.093539069648 0.73968992908 
0.55023674592 0.72072082381 0.87472086933 0.91063842452 0.86803215465 0.34829344579 0.64869226768 0.61058589107 0.49587072706 
0.79243378416 0.18699452136 0.51342757587 0.19694187886 0.97612570146 0.16727132286 0.049265784901 0.58049597474 0.79446775168 
0.15911939314 0.50074310385 0.21062810474 0.3897834658 0.80509221131 0.37988797397 0.34133009597 0.23831207931 0.94054867936 
0.1824897108 0.37818027115 0.51245996549 0.84226577722 0.58015674302 0.18537014417 0.92973145183 0.6489997647 0.4908362944 
0.49479968635 0.021579849575 0.67866230781 0.039680368658 0.84037976918 0.18377213368 0.60344721991 0.10538002616 0.28183709169 
0.82862334404 0.090950860213 0.73071009153 0.6694112791 0.74506065176 0.86086188465 0.95385494741 0.090754490788 0.075171520428 
0.2441251999 0.23638786997 0.73973319234 0.55738242951 0.93519016076 0.64828896215 0.91065351476 0.55731906275 0.94260785769 
0.82239070183 
