# vtk DataFile Version 4.0
vtk output
ASCII
DATASET STRUCTURED_GRID
DIMENSIONS 20 5 1
POINTS 100 double
0 0 0 1 0 0 2 0 0 
3 0 0 4 0 0 5 0 0 
6 0 0 7 0 0 8 0 0 
9 0 0 0 1 0 1 1 0 
2 1 0 3 1 0 4 1 0 
5 1 0 6 1 0 7 1 0 
8 1 0 9 1 0 0 2 0 
1 2 0 2 2 0 3 2 0 
4 2 0 5 2 0 6 2 0 
7 2 0 8 2 0 9 2 0 
0 3 0 1 3 0 2 3 0 
3 3 0 4 3 0 5 3 0 
6 3 0 7 3 0 8 3 0 
9 3 0 0 4 0 1 4 0 
2 4 0 3 4 0 4 4 0 
5 4 0 6 4 0 7 4 0 
8 4 0 9 4 0 0 5 0 
1 5 0 2 5 0 3 5 0 
4 5 0 5 5 0 6 5 0 
7 5 0 8 5 0 9 5 0 
0 6 0 1 6 0 2 6 0 
3 6 0 4 6 0 5 6 0 
6 6 0 7 6 0 8 6 0 
9 6 0 0 7 0 1 7 0 
2 7 0 3 7 0 4 7 0 
5 7 0 6 7 0 7 7 0 
8 7 0 9 7 0 0 8 0 
1 8 0 2 8 0 3 8 0 
4 8 0 5 8 0 6 8 0 
7 8 0 8 8 0 9 8 0 
0 9 0 1 9 0 2 9 0 
3 9 0 4 9 0 5 9 0 
6 9 0 7 9 0 8 9 0 
9 9 0 
POINT_DATA 100
SCALARS vz double
LOOKUP_TABLE default
0.0842139 0.508849 0.129627 0.205152 0.568371 0.749747 0.332267 0.238258 0.596775 
0.833777 0.989718 0.613385 0.679854 0.291553 0.842938 0.423693 0.589093 0.128906 
0.797847 0.736237 0.403292 0.681587 0.223144 0.988114 0.215835 0.153548 0.958272 
0.573446 0.79117 0.853664 0.460632 0.98417 0.212774 0.0920895 0.959769 0.326803 
0.365174 0.0366453 0.567646 0.986685 0.888578 0.322585 0.502743 0.454408 0.664043 
0.401343 0.283085 0.554001 0.338942 0.437881 0.2953 0.577404 0.38334 0.00414831 
0.432819 0.991763 0.605488 0.0384434 0.926922 0.540656 0.176145 0.334104 0.531934 
0.849531 0.467023 0.883578 0.844456 0.33311 0.105997 0.179958 0.57692 0.236711 
0.994964 0.161223 0.930714 0.136605 0.600772 0.0184065 0.905774 0.508426 0.365571 
0.215368 0.400356 0.438825 0.259629 0.0795654 0.788753 0.0360753 0.0124527 0.781919 
0.770234 0.339103 0.0923147 0.818751 0.348887 0.190398 0.01869 0.767693 0.420977 
0.0529502 
