# vtk DataFile Version 4.0
vtk output
ASCII
DATASET STRUCTURED_GRID
DIMENSIONS 2 5 1
POINTS 10 double
0 0 1
0 0 2
0 0 3
0 0 4
0 0 5
0 0 6
0 0 7
0 0 8
0 0 9
0 0 10

POINT_DATA 10
SCALARS vz double
LOOKUP_TABLE default
0.0842139 0.508849 0.129627 0.205152 0.568371 0.749747 0.332267 0.238258 0.596775 
0.83377 
