# vtk DataFile Version 4.0
vtk output
ASCII
DATASET STRUCTURED_GRID
DIMENSIONS 90 90 1
POINTS 8100 double
0 0 1 0 0 1 0 0 1 
0 0 1 0 0 1 0 0 1 
0 0 1 0 0 1 0 0 1 
0 0 1 0 0 1 0 0 1 
0 0 1 0 0 1 0 0 1 
0 0 1 0 0 1 0 0 1 
0 0 1 0 0 1 0 0 1 
0 0 1 0 0 1 0 0 1 
0 0 1 0 0 1 0 0 1 
0 0 1 0 0 1 0 0 1 
0 0 1 0 0 1 0 0 1 
0 0 1 0 0 1 0 0 1 
0 0 1 0 0 1 0 0 1 
0 0 1 0 0 1 0 0 1 
0 0 1 0 0 1 0 0 1 
0 0 1 0 0 1 0 0 1 
0 0 1 0 0 1 0 0 1 
0 0 1 0 0 1 0 0 1 
0 0 1 0 0 1 0 0 1 
0 0 1 0 0 1 0 0 1 
0 0 1 0 0 1 0 0 1 
0 0 1 0 0 1 0 0 1 
0 0 1 0 0 1 0 0 1 
0 0 1 0 0 1 0 0 1 
0 0 1 0 0 1 0 0 1 
0 0 1 0 0 1 0 0 1 
0 0 1 0 0 1 0 0 1 
0 0 1 0 0 1 0 0 1 
0 0 1 0 0 1 0 0 1 
0 0 1 0 0 1 0 0 1 
0.0174524 0 0.999848 0.0174497 0.000304586 0.999848 0.0174418 0.00060908 0.999848 
0.0174285 0.000913388 0.999848 0.0174099 0.00121742 0.999848 0.017386 0.00152108 0.999848 
0.0173568 0.00182427 0.999848 0.0173223 0.00212691 0.999848 0.0172826 0.00242891 0.999848 
0.0172375 0.00273016 0.999848 0.0171873 0.00303058 0.999848 0.0171318 0.00333008 0.999848 
0.017071 0.00362856 0.999848 0.0170051 0.00392594 0.999848 0.016934 0.00422212 0.999848 
0.0168577 0.00451702 0.999848 0.0167763 0.00481054 0.999848 0.0166898 0.00510259 0.999848 
0.0165982 0.00539309 0.999848 0.0165016 0.00568195 0.999848 0.0163999 0.00596907 0.999848 
0.0162932 0.00625438 0.999848 0.0161816 0.00653779 0.999848 0.016065 0.0068192 0.999848 
0.0159436 0.00709853 0.999848 0.0158173 0.00737571 0.999848 0.0156861 0.00765063 0.999848 
0.0155502 0.00792323 0.999848 0.0154096 0.00819341 0.999848 0.0152642 0.00846109 0.999848 
0.0151142 0.0087262 0.999848 0.0149596 0.00898865 0.999848 0.0148005 0.00924837 0.999848 
0.0146368 0.00950526 0.999848 0.0144687 0.00975926 0.999848 0.0142962 0.0100103 0.999848 
0.0141193 0.0102583 0.999848 0.0139381 0.0105031 0.999848 0.0137527 0.0107448 0.999848 
0.0135631 0.0109832 0.999848 0.0133693 0.0112182 0.999848 0.0131715 0.0114498 0.999848 
0.0129697 0.0116779 0.999848 0.0127639 0.0119025 0.999848 0.0125542 0.0121235 0.999848 
0.0123407 0.0123407 0.999848 0.0121235 0.0125542 0.999848 0.0119025 0.0127639 0.999848 
0.0116779 0.0129697 0.999848 0.0114498 0.0131715 0.999848 0.0112182 0.0133693 0.999848 
0.0109832 0.0135631 0.999848 0.0107448 0.0137527 0.999848 0.0105031 0.0139381 0.999848 
0.0102583 0.0141193 0.999848 0.0100103 0.0142962 0.999848 0.00975926 0.0144687 0.999848 
0.00950526 0.0146368 0.999848 0.00924837 0.0148005 0.999848 0.00898865 0.0149596 0.999848 
0.0087262 0.0151142 0.999848 0.00846109 0.0152642 0.999848 0.00819341 0.0154096 0.999848 
0.00792323 0.0155502 0.999848 0.00765063 0.0156861 0.999848 0.00737571 0.0158173 0.999848 
0.00709853 0.0159436 0.999848 0.0068192 0.016065 0.999848 0.00653779 0.0161816 0.999848 
0.00625438 0.0162932 0.999848 0.00596907 0.0163999 0.999848 0.00568195 0.0165016 0.999848 
0.00539309 0.0165982 0.999848 0.00510259 0.0166898 0.999848 0.00481054 0.0167763 0.999848 
0.00451702 0.0168577 0.999848 0.00422212 0.016934 0.999848 0.00392594 0.0170051 0.999848 
0.00362856 0.017071 0.999848 0.00333008 0.0171318 0.999848 0.00303058 0.0171873 0.999848 
0.00273016 0.0172375 0.999848 0.00242891 0.0172826 0.999848 0.00212691 0.0173223 0.999848 
0.00182427 0.0173568 0.999848 0.00152108 0.017386 0.999848 0.00121742 0.0174099 0.999848 
0.000913388 0.0174285 0.999848 0.00060908 0.0174418 0.999848 0.000304586 0.0174497 0.999848 
0.0348995 0 0.999391 0.0348942 0.00060908 0.999391 0.0348782 0.00121797 0.999391 
0.0348517 0.0018265 0.999391 0.0348145 0.00243447 0.999391 0.0347667 0.00304169 0.999391 
0.0347083 0.00364799 0.999391 0.0346394 0.00425318 0.999391 0.0345599 0.00485707 0.999391 
0.0344698 0.00545948 0.999391 0.0343693 0.00606023 0.999391 0.0342583 0.00665914 0.999391 
0.0341369 0.00725601 0.999391 0.034005 0.00785068 0.999391 0.0338628 0.00844295 0.999391 
0.0337103 0.00903265 0.999391 0.0335475 0.0096196 0.999391 0.0333746 0.0102036 0.999391 
0.0331914 0.0107845 0.999391 0.0329981 0.0113622 0.999391 0.0327948 0.0119363 0.999391 
0.0325815 0.0125069 0.999391 0.0323582 0.0130736 0.999391 0.0321252 0.0136363 0.999391 
0.0318823 0.0141949 0.999391 0.0316297 0.0147492 0.999391 0.0313675 0.0152989 0.999391 
0.0310957 0.015844 0.999391 0.0308144 0.0163843 0.999391 0.0305238 0.0169196 0.999391 
0.0302239 0.0174497 0.999391 0.0299147 0.0179746 0.999391 0.0295965 0.0184939 0.999391 
0.0292692 0.0190076 0.999391 0.028933 0.0195156 0.999391 0.028588 0.0200175 0.999391 
0.0282343 0.0205134 0.999391 0.027872 0.021003 0.999391 0.0275012 0.0214863 0.999391 
0.027122 0.021963 0.999391 0.0267346 0.022433 0.999391 0.026339 0.0228961 0.999391 
0.0259354 0.0233523 0.999391 0.0255239 0.0238014 0.999391 0.0251046 0.0242432 0.999391 
0.0246777 0.0246777 0.999391 0.0242432 0.0251046 0.999391 0.0238014 0.0255239 0.999391 
0.0233523 0.0259354 0.999391 0.0228961 0.026339 0.999391 0.022433 0.0267346 0.999391 
0.021963 0.027122 0.999391 0.0214863 0.0275012 0.999391 0.021003 0.027872 0.999391 
0.0205134 0.0282343 0.999391 0.0200175 0.028588 0.999391 0.0195156 0.028933 0.999391 
0.0190076 0.0292692 0.999391 0.0184939 0.0295965 0.999391 0.0179746 0.0299147 0.999391 
0.0174497 0.0302239 0.999391 0.0169196 0.0305238 0.999391 0.0163843 0.0308144 0.999391 
0.015844 0.0310957 0.999391 0.0152989 0.0313675 0.999391 0.0147492 0.0316297 0.999391 
0.0141949 0.0318823 0.999391 0.0136363 0.0321252 0.999391 0.0130736 0.0323582 0.999391 
0.0125069 0.0325815 0.999391 0.0119363 0.0327948 0.999391 0.0113622 0.0329981 0.999391 
0.0107845 0.0331914 0.999391 0.0102036 0.0333746 0.999391 0.0096196 0.0335475 0.999391 
0.00903265 0.0337103 0.999391 0.00844295 0.0338628 0.999391 0.00785068 0.034005 0.999391 
0.00725601 0.0341369 0.999391 0.00665914 0.0342583 0.999391 0.00606023 0.0343693 0.999391 
0.00545948 0.0344698 0.999391 0.00485707 0.0345599 0.999391 0.00425318 0.0346394 0.999391 
0.00364799 0.0347083 0.999391 0.00304169 0.0347667 0.999391 0.00243447 0.0348145 0.999391 
0.0018265 0.0348517 0.999391 0.00121797 0.0348782 0.999391 0.00060908 0.0348942 0.999391 
0.052336 0 0.99863 0.052328 0.000913388 0.99863 0.0523041 0.0018265 0.99863 
0.0522642 0.00273905 0.99863 0.0522085 0.00365077 0.99863 0.0521368 0.00456138 0.99863 
0.0520493 0.0054706 0.99863 0.0519459 0.00637815 0.99863 0.0518266 0.00728376 0.99863 
0.0516916 0.00818715 0.99863 0.0515409 0.00908804 0.99863 0.0513744 0.00998617 0.99863 
0.0511923 0.0108813 0.99863 0.0509946 0.011773 0.99863 0.0507814 0.0126612 0.99863 
0.0505527 0.0135455 0.99863 0.0503086 0.0144257 0.99863 0.0500491 0.0153016 0.99863 
0.0497745 0.0161727 0.99863 0.0494846 0.0170389 0.99863 0.0491797 0.0179 0.99863 
0.0488598 0.0187555 0.99863 0.0485251 0.0196054 0.99863 0.0481755 0.0204493 0.99863 
0.0478113 0.021287 0.99863 0.0474325 0.0221181 0.99863 0.0470392 0.0229426 0.99863 
0.0466317 0.02376 0.99863 0.0462099 0.0245702 0.99863 0.0457741 0.025373 0.99863 
0.0453243 0.026168 0.99863 0.0448607 0.026955 0.99863 0.0443834 0.0277338 0.99863 
0.0438926 0.0285042 0.99863 0.0433885 0.0292659 0.99863 0.0428711 0.0300187 0.99863 
0.0423407 0.0307623 0.99863 0.0417974 0.0314966 0.99863 0.0412413 0.0322212 0.99863 
0.0406727 0.0329361 0.99863 0.0400917 0.0336409 0.99863 0.0394984 0.0343355 0.99863 
0.0388932 0.0350196 0.99863 0.0382761 0.035693 0.99863 0.0376473 0.0363556 0.99863 
0.0370071 0.0370071 0.99863 0.0363556 0.0376473 0.99863 0.035693 0.0382761 0.99863 
0.0350196 0.0388932 0.99863 0.0343355 0.0394984 0.99863 0.0336409 0.0400917 0.99863 
0.0329361 0.0406727 0.99863 0.0322212 0.0412413 0.99863 0.0314966 0.0417974 0.99863 
0.0307623 0.0423407 0.99863 0.0300187 0.0428711 0.99863 0.0292659 0.0433885 0.99863 
0.0285042 0.0438926 0.99863 0.0277338 0.0443834 0.99863 0.026955 0.0448607 0.99863 
0.026168 0.0453243 0.99863 0.025373 0.0457741 0.99863 0.0245702 0.0462099 0.99863 
0.02376 0.0466317 0.99863 0.0229426 0.0470392 0.99863 0.0221181 0.0474325 0.99863 
0.021287 0.0478113 0.99863 0.0204493 0.0481755 0.99863 0.0196054 0.0485251 0.99863 
0.0187555 0.0488598 0.99863 0.0179 0.0491797 0.99863 0.0170389 0.0494846 0.99863 
0.0161727 0.0497745 0.99863 0.0153016 0.0500491 0.99863 0.0144257 0.0503086 0.99863 
0.0135455 0.0505527 0.99863 0.0126612 0.0507814 0.99863 0.011773 0.0509946 0.99863 
0.0108813 0.0511923 0.99863 0.00998617 0.0513744 0.99863 0.00908804 0.0515409 0.99863 
0.00818715 0.0516916 0.99863 0.00728376 0.0518266 0.99863 0.00637815 0.0519459 0.99863 
0.0054706 0.0520493 0.99863 0.00456138 0.0521368 0.99863 0.00365077 0.0522085 0.99863 
0.00273905 0.0522642 0.99863 0.0018265 0.0523041 0.99863 0.000913388 0.052328 0.99863 
0.0697565 0 0.997564 0.0697458 0.00121742 0.997564 0.069714 0.00243447 0.997564 
0.0696609 0.00365077 0.997564 0.0695866 0.00486597 0.997564 0.069491 0.00607968 0.997564 
0.0693743 0.00729154 0.997564 0.0692365 0.00850118 0.997564 0.0690776 0.00970822 0.997564 
0.0688977 0.0109123 0.997564 0.0686967 0.0121131 0.997564 0.0684749 0.0133102 0.997564 
0.0682321 0.0145032 0.997564 0.0679686 0.0156918 0.997564 0.0676844 0.0168756 0.997564 
0.0673796 0.0180543 0.997564 0.0670542 0.0192275 0.997564 0.0667084 0.0203948 0.997564 
0.0663423 0.0215559 0.997564 0.065956 0.0227105 0.997564 0.0655496 0.0238581 0.997564 
0.0651233 0.0249985 0.997564 0.0646771 0.0261312 0.997564 0.0642112 0.027256 0.997564 
0.0637257 0.0283725 0.997564 0.0632208 0.0294804 0.997564 0.0626967 0.0305792 0.997564 
0.0621535 0.0316688 0.997564 0.0615913 0.0327487 0.997564 0.0610104 0.0338186 0.997564 
0.0604109 0.0348782 0.997564 0.059793 0.0359272 0.997564 0.0591568 0.0369653 0.997564 
0.0585027 0.0379921 0.997564 0.0578307 0.0390073 0.997564 0.0571412 0.0400107 0.997564 
0.0564342 0.0410018 0.997564 0.05571 0.0419805 0.997564 0.0549689 0.0429464 0.997564 
0.054211 0.0438992 0.997564 0.0534366 0.0448386 0.997564 0.0526459 0.0457644 0.997564 
0.0518392 0.0466762 0.997564 0.0510167 0.0475738 0.997564 0.0501786 0.0484569 0.997564 
0.0493253 0.0493253 0.997564 0.0484569 0.0501786 0.997564 0.0475738 0.0510167 0.997564 
[...]
POINT_DATA 8100
SCALARS vz double
LOOKUP_TABLE default
0.608455 0.836291 0.683223 0.599277 0.495308 0.79762 0.28679 0.0355893 0.00172818 
0.575488 0.913436 0.630329 0.500429 0.650306 0.917274 0.732417 0.478571 0.727722 
0.99408 0.0116998 0.908996 0.415239 0.471368 0.705654 0.532762 0.963517 0.509852 
0.66087 0.958389 0.056187 0.459212 0.967449 0.78593 0.222297 0.74429 0.277036 
0.765234 0.738599 0.0829768 0.667985 0.861172 0.817372 0.735701 0.891174 0.0668637 
0.641788 0.426189 0.00196473 0.423621 0.955572 0.906136 0.467708 0.422003 0.451549 
0.680368 0.912022 0.245474 0.935149 0.0728729 0.627471 0.242078 0.220967 0.0262254 
0.324702 0.0988608 0.755058 0.15235 0.516241 0.278664 0.649974 0.00464367 0.482846 
0.825476 0.237049 0.948422 0.616363 0.986709 0.0269521 0.368075 0.418628 0.987097 
0.493595 0.817118 0.417061 0.9959 0.963305 0.00720378 0.0113815 0.886245 0.294071 
0.24505 0.446153 0.764556 0.222256 0.833282 0.256327 0.742787 0.271007 0.852352 
0.171253 0.669439 0.503993 0.0795153 0.169205 0.213147 0.112204 0.484862 0.763345 
0.377493 0.688512 0.852225 0.885664 0.52544 0.673164 0.601027 0.577022 0.530421 
0.488664 0.973413 0.994333 0.664782 0.362767 0.650734 0.225015 0.721164 0.372509 
0.580134 0.67718 0.840205 0.887771 0.583473 0.0614139 0.397129 0.547883 0.608674 
0.40133 0.0339177 0.34954 0.137839 0.0677558 0.751064 0.501446 0.539287 0.400508 
0.768596 0.240043 0.926314 0.0197691 0.711936 0.954001 0.239562 0.352584 0.419746 
0.155452 0.847782 0.0510946 0.52785 0.407339 0.871718 0.636038 0.370442 0.286612 
0.93078 0.469924 0.249182 0.775874 0.836226 0.896603 0.0398092 0.619651 0.368957 
0.551287 0.195439 0.04961 0.277136 0.427488 0.451392 0.365146 0.658449 0.55304 
0.675913 0.938226 0.552403 0.532333 0.420312 0.649922 0.656786 0.3826 0.611758 
0.407378 0.0359976 0.182884 0.702329 0.507914 0.116658 0.277245 0.0689804 0.676778 
0.696557 0.411405 0.389815 0.154396 0.370288 0.589787 0.223425 0.0119573 0.360858 
0.323798 0.183009 0.712319 0.0578948 0.305673 0.317677 0.384066 0.736167 0.132958 
0.383321 0.57662 0.7797 0.297526 0.272565 0.76753 0.546809 0.345961 0.322609 
0.499869 0.934682 0.909005 0.645688 0.865857 0.514445 0.806053 0.216285 0.507832 
0.585396 0.977763 0.669296 0.499783 0.403804 0.670548 0.575744 0.817951 0.977491 
0.440175 0.0151581 0.812638 0.379456 0.642829 0.728171 0.787343 0.169453 0.10624 
0.345815 0.202992 0.45889 0.605093 0.994274 0.974408 0.829755 0.741936 0.682608 
0.79968 0.71637 0.212614 0.551833 0.254422 0.880175 0.908229 0.832182 0.853739 
0.607698 0.723239 0.927276 0.711877 0.97252 0.86978 0.564823 0.569632 0.464193 
0.735059 0.872604 0.923847 0.76413 0.556703 0.855079 0.525078 0.882673 0.152553 
0.286425 0.921384 0.632551 0.423451 0.735029 0.0568311 0.269194 0.183888 0.836199 
0.36407 0.785659 0.76645 0.786365 0.802095 0.334969 0.018547 0.915013 0.757327 
0.224053 0.0723708 0.861973 0.344799 0.770905 0.25048 0.0740854 0.791865 0.272991 
0.972276 0.378832 0.564961 0.756534 0.370072 0.330575 0.393729 0.992547 0.671161 
0.751861 0.0448065 0.395831 0.797176 0.789881 0.627866 0.790637 0.700097 0.886206 
0.888499 0.30268 0.547908 0.768796 0.931848 0.714319 0.575357 0.582843 0.582169 
0.976735 0.0213566 0.663044 0.552723 0.0830914 0.124904 0.363599 0.806538 0.440634 
0.287449 0.840698 0.540097 0.4518 0.837712 0.384111 0.40312 0.605992 0.364883 
0.475073 0.261723 0.529462 0.521426 0.471675 0.0691059 0.20838 0.865517 0.0467394 
0.902529 0.350391 0.262842 0.499661 0.794267 0.157941 0.470412 0.60422 0.360822 
0.121229 0.685681 0.630319 0.7711 0.947031 0.719241 0.654109 0.954486 0.157294 
0.054858 0.782019 0.804437 0.0296478 0.192066 0.3152 0.488301 0.746038 0.115594 
0.0720137 0.629206 0.224306 0.88631 0.87766 0.120936 0.179941 0.46732 0.0323457 
0.647561 0.462002 0.149318 0.515301 0.925274 0.909935 0.503675 0.485652 0.563155 
0.610876 0.622967 0.408603 0.476879 0.848109 0.820782 0.43742 0.105058 0.295221 
0.721993 0.786551 0.375363 0.806865 0.401002 0.282441 0.1619 0.25177 0.224143 
0.274674 0.878834 0.0810062 0.765648 0.721866 0.322536 0.992246 0.267294 0.62719 
0.944857 0.71948 0.697756 0.375156 0.942011 0.339759 0.811707 0.718602 0.481356 
0.490546 0.755972 0.0779758 0.684697 0.904105 0.777245 0.793243 0.211449 0.00436878 
0.735321 0.513351 0.289574 0.218897 0.921145 0.447471 0.216823 0.835346 0.974734 
0.637691 0.951076 0.986119 0.318815 0.747638 0.796505 0.661943 0.857809 0.48407 
0.0312733 0.924721 0.316668 0.0736793 0.400217 0.0368755 0.475232 0.749337 0.641773 
0.0425016 0.234231 0.867745 0.364991 0.323942 0.929095 0.164602 0.0840438 0.327983 
0.218551 0.985591 0.817849 0.719565 0.529154 0.525534 0.903495 0.951066 0.25448 
0.328291 0.605952 0.560627 0.730293 0.520937 0.020706 0.952206 0.963465 0.35975 
0.407321 0.0657041 0.844832 0.501238 0.134599 0.39361 0.757512 0.247325 0.906593 
0.768143 0.906907 0.127274 0.948931 0.533253 0.385552 0.124091 0.110253 0.325069 
0.0585271 0.471873 0.773723 0.60457 0.181791 0.921025 0.942904 0.741788 0.437321 
0.750525 0.872373 0.352039 0.942965 0.230139 0.43848 0.825634 0.345403 0.688928 
0.19131 0.929455 0.411477 0.654083 0.132784 0.53627 0.354723 0.811887 0.660937 
0.464745 0.844703 0.238505 0.0458255 0.615166 0.560256 0.994998 0.538265 0.614188 
0.201709 0.670067 0.205081 0.774485 0.198492 0.636153 0.517602 0.0669975 0.489099 
0.458765 0.24026 0.0980273 0.303749 0.43619 0.858243 0.0593825 0.97674 0.0910986 
0.430896 0.169223 0.434457 0.101963 0.966581 0.42867 0.0926968 0.851135 0.543435 
0.323534 0.238848 0.980321 0.564445 0.0791906 0.719002 0.47544 0.0272705 0.78178 
0.288058 0.614621 0.634364 0.725987 0.875005 0.196167 0.916338 0.120452 0.831999 
0.823152 0.266602 0.0960065 0.00350792 0.626221 0.942247 0.165064 0.959493 0.36276 
0.572587 0.396778 0.575713 0.691406 0.280004 0.706482 0.142623 0.665381 0.0399251 
0.750213 0.628434 0.917097 0.726093 0.614052 0.0877776 0.58745 0.833927 0.781922 
0.0358584 0.56692 0.976551 0.642282 0.259506 0.77903 0.621829 0.896087 0.876084 
0.86477 0.40885 0.275156 0.419629 0.783135 0.121633 0.997224 0.235957 0.508601 
0.727903 0.253919 0.604807 0.746448 0.0741613 0.836021 0.382312 0.554532 0.182659 
0.889446 0.844571 0.467566 0.0251785 0.586419 0.846994 0.422546 0.759801 0.817728 
0.76369 0.396577 0.0482208 0.895356 0.113716 0.145546 0.82732 0.627152 0.656295 
0.836363 0.297132 0.0380642 0.50328 0.74828 0.107126 0.696039 0.639689 0.0975808 
0.482534 0.663688 0.998024 0.730977 0.906547 0.697878 0.453089 0.58749 0.0435488 
0.230114 0.0422025 0.265265 0.930216 0.426273 0.52704 0.222062 0.882482 0.591732 
0.624658 0.825884 0.82421 0.27575 0.822527 0.977557 0.540744 0.217336 0.424151 
0.914208 0.120098 0.907852 0.573022 0.775881 0.790303 0.609337 0.879006 0.466046 
0.516685 0.00426599 0.222658 0.299362 0.770737 0.576292 0.527721 0.60357 0.0238655 
0.534142 0.455531 0.529844 0.508869 0.575944 0.709653 0.219714 0.644537 0.455236 
0.0650896 0.394268 0.238533 0.897118 0.182894 0.289186 0.357538 0.357891 0.491635 
0.824838 0.0334789 0.385053 0.657432 0.451253 0.456343 0.855893 0.238541 0.92994 
0.667532 0.355217 0.093821 0.504859 0.957982 0.0200459 0.967901 0.141481 0.748086 
0.227541 0.226947 0.659384 0.820823 0.113445 0.993615 0.640904 0.998177 0.66312 
0.253733 0.400274 0.934612 0.122496 0.897319 0.730662 0.430623 0.571639 0.152262 
0.745333 0.0582243 0.225541 0.11976 0.884594 0.309133 0.220332 0.697614 0.101695 
0.798059 0.124413 0.528692 0.849606 0.120158 0.126768 0.127369 0.388396 0.0871149 
0.505705 0.0895696 0.06548 0.19794 0.927292 0.0672162 0.19971 0.737675 0.118059 
0.852856 0.813313 0.797667 0.49573 0.28173 0.861148 0.0138518 0.653596 0.52099 
0.72131 0.856115 0.715338 0.803417 0.1103 0.677788 0.0812299 0.523445 0.930718 
0.0466664 0.488265 0.235655 0.372654 0.857879 0.383677 0.745336 0.312955 0.868016 
0.465732 0.887862 0.519986 0.789923 0.11385 0.98247 0.500964 0.861694 0.374285 
0.371329 0.620517 0.241736 0.727961 0.954976 0.38555 0.166614 0.954003 0.916514 
0.655914 0.41844 0.73113 0.302533 0.746254 0.444606 0.883206 0.395085 0.234479 
0.55789 0.354916 0.489108 0.144544 0.16813 0.938739 0.506809 0.490289 0.975676 
0.629189 0.808072 0.273591 0.481707 0.843662 0.309404 0.673479 0.62731 0.263241 
0.978109 0.31753 0.149429 0.415754 0.964649 0.347418 0.809391 0.252512 0.402526 
0.160267 0.228313 0.343994 0.704287 0.531604 0.663321 0.339861 0.397658 0.489162 
0.925484 0.861944 0.308972 0.831232 0.471326 0.62185 0.42583 0.173652 0.677641 
0.214173 0.582322 0.251249 0.803948 0.180002 0.48353 0.836052 0.535219 0.690384 
0.932301 0.513417 0.758047 0.520475 0.708263 0.685639 0.739844 0.602403 0.920888 
0.205132 0.172059 0.219182 0.156081 0.444364 0.114999 0.399197 0.742664 0.513824 
0.770709 0.609189 0.282338 0.680094 0.895331 0.347702 0.698937 0.991668 0.16766 
0.54067 0.160795 0.0705937 0.375823 0.121854 0.96233 0.350515 0.605941 0.549668 
0.111563 0.411188 0.441515 0.958039 0.704543 0.707955 0.903599 0.449663 0.530388 
0.38721 0.497816 0.723076 0.384033 0.718935 0.0275388 0.0612482 0.561679 0.0111209 
0.53097 0.347179 0.576896 0.841659 0.841154 0.479053 0.851671 0.566293 0.482512 
0.719098 0.853626 0.313844 0.0118468 0.815158 0.962431 0.458179 0.922885 0.611979 
0.166255 0.651261 0.106727 0.432965 0.839296 0.900112 0.0423964 0.634836 0.328301 
0.518251 0.114227 0.940957 0.867961 0.389455 0.143336 0.540842 0.396254 0.265194 
0.476286 0.754719 0.950026 0.827001 0.390158 0.00209298 0.529323 0.398221 0.929604 
0.812089 0.548146 0.268068 0.77692 0.924994 0.548487 0.956684 0.775526 0.0195584 
0.00638352 0.339971 0.458272 0.752272 0.592261 0.418813 0.582373 0.303676 0.228204 
0.0554097 0.592112 0.933749 0.692864 0.616982 0.777863 0.252416 0.97644 0.330231 
0.397913 0.265538 0.552567 0.852991 0.481151 0.697439 0.73994 0.95739 0.0101166 
0.210525 0.473094 0.58801 0.6138 0.0910677 0.685164 0.302481 0.195202 0.600263 
0.487765 0.508823 0.0440388 0.0857804 0.0337173 0.584384 0.318074 0.0928722 0.534664 
0.95795 0.687726 0.0234115 0.302886 0.606222 0.899694 0.896309 0.659627 0.0110072 
0.459936 0.0139928 0.632444 0.271381 0.677074 0.356057 0.240544 0.0687814 0.679217 
0.985561 0.715768 0.588962 0.928548 0.00614467 0.540869 0.52216 0.88923 0.234383 
0.0707307 0.628564 0.903643 0.868387 0.706262 0.628627 0.326491 0.844166 0.168958 
0.0775121 0.292427 0.314226 0.00604514 0.503577 0.592177 0.261783 0.182567 0.990661 
0.730886 0.572881 0.209572 0.100634 0.778334 0.839338 0.595228 0.176036 0.978249 
0.330985 0.947776 0.44802 0.0937628 0.932182 0.768773 0.122004 0.351658 0.920938 
0.615797 0.841747 0.654096 0.196472 0.674748 0.775895 0.271594 0.903365 0.345051 
0.454152 0.0933091 0.114802 0.375095 0.593246 0.665356 0.823153 0.141023 0.641998 
0.960206 0.74555 0.974965 0.906327 0.312598 0.984337 0.0868629 0.638062 0.111897 
0.281683 0.126344 0.19328 0.723427 0.376335 0.113917 0.584899 0.577736 0.0940249 
0.00208015 0.59373 0.416887 0.60383 0.412419 0.103186 0.194987 0.410141 0.683841 
0.410159 0.0615304 0.274901 0.29896 0.689002 0.713042 0.798376 0.114 0.877166 
0.115603 0.533209 0.0636344 0.99716 0.57464 0.849213 0.955371 0.25766 0.85645 
0.859389 0.701107 0.691773 0.967226 0.396931 0.420148 0.381445 0.0710918 0.874681 
0.751236 0.296175 0.121647 0.59726 0.0491046 0.750537 0.512507 0.509286 0.246468 
0.808198 0.497053 0.772246 0.897825 0.0951117 0.0772987 0.484082 0.601085 0.696811 
0.0563193 0.370659 0.584317 0.078581 0.440845 0.933215 0.893969 0.901493 0.872808 
0.590246 0.98901 0.315352 0.220352 0.387093 0.550699 0.454623 0.45964 0.91646 
0.315754 0.786742 0.0210813 0.380155 0.995815 0.152548 0.379794 0.622748 0.370411 
0.95738 0.828129 0.770159 0.863101 0.874753 0.36287 0.0548408 0.129722 0.770914 
0.205944 0.782005 0.333432 0.568433 0.658475 0.597924 0.662407 0.577889 0.0451234 
0.16623 0.663419 0.0176211 0.834613 0.430136 0.39978 0.332879 0.242352 0.542867 
0.550119 0.698862 0.865933 0.159677 0.615796 0.944726 0.351401 0.578109 0.672877 
0.0145774 0.489424 0.0536306 0.764215 0.2338 0.75187 0.545668 0.846066 0.214492 
0.748254 0.420654 0.588797 0.238862 0.667851 0.377162 0.17659 0.189199 0.63369 
0.456219 0.924726 0.489193 0.256986 0.988396 0.15996 0.589821 0.0965219 0.477763 
0.396032 0.474156 0.630739 0.857034 0.0488604 0.145625 0.900446 0.233248 0.735777 
0.989207 0.469624 0.160128 0.24968 0.995952 0.0458574 0.142084 0.917014 0.415314 
0.455884 0.182956 0.527492 0.323241 0.805015 0.59657 0.0139087 0.952006 0.767463 
0.469332 0.641577 0.041123 0.980398 0.103019 0.676451 0.285309 0.855682 0.95257 
0.131929 0.580982 0.354893 0.554088 0.163286 0.00388946 0.479327 0.17839 0.142689 
0.32599 0.671233 0.365476 0.162784 0.374437 0.170679 0.391351 0.0240211 0.521821 
0.994978 0.779432 0.658864 0.190465 0.492348 0.561995 0.823578 0.243857 0.452733 
0.0455014 0.489534 0.46739 0.166737 0.320651 0.681339 0.543479 0.916796 0.0910893 
0.96487 0.814469 0.0551491 0.539638 0.135214 0.122995 0.599996 0.779952 0.348712 
0.0234612 0.0367995 0.497948 0.743595 0.810763 0.41388 0.620543 0.117268 0.0547461 
0.580644 0.857354 0.278712 0.379879 0.381904 0.445912 0.108674 0.880696 0.377899 
0.270228 0.882346 0.0138973 0.287901 0.242411 0.824283 0.225101 0.32487 0.335181 
0.301815 0.666372 0.173406 0.622808 0.91269 0.640759 0.515641 0.456427 0.0555984 
0.850261 0.718359 0.282003 0.52079 0.291963 0.558281 0.975006 0.920358 0.904857 
0.436933 0.848844 0.606598 0.947767 0.369557 0.894495 0.400446 0.294018 0.834884 
0.677039 0.630753 0.169503 0.323269 0.881076 0.542587 0.822967 0.123646 0.640241 
0.611697 0.0524362 0.44032 0.348181 0.0428045 0.580699 0.414462 0.978344 0.928288 
0.821943 0.455141 0.139141 0.8967 0.147581 0.665337 0.418302 0.970239 0.897346 
0.672468 0.172137 0.314385 0.176346 0.319587 0.675961 0.568754 0.753709 0.186042 
0.296189 0.918124 0.370764 0.19493 0.549254 0.360672 0.793051 0.902762 0.772799 
0.265189 0.5408 0.843744 0.723509 0.362001 0.741785 0.229662 0.873427 0.509657 
0.41215 0.116413 0.596434 0.208547 0.868667 0.771969 0.628511 0.963354 0.486658 
0.120529 0.396109 0.905796 0.387906 0.571227 0.709091 0.416949 0.720536 0.588984 
0.622753 0.515207 0.940477 0.968989 0.171991 0.366203 0.627015 0.431499 0.126926 
0.155125 0.259507 0.426951 0.232428 0.448429 0.1505 0.522437 0.265965 0.587671 
0.768014 0.713313 0.551815 0.636532 0.47016 0.9737 0.438416 0.782377 0.329347 
0.553451 0.395156 0.50527 0.0146115 0.941994 0.716585 0.7275 0.92125 0.215337 
0.297363 0.648204 0.804886 0.857079 0.444279 0.417988 0.280345 0.53638 0.33747 
0.476017 0.310482 0.6113 0.349302 0.606841 0.590422 0.889746 0.363015 0.103977 
0.0448512 0.106262 0.788135 0.590326 0.0386864 0.74743 0.906582 0.275978 0.516673 
0.269652 0.341499 0.171035 0.239594 0.46762 0.240204 0.667594 0.482954 0.865008 
0.687753 0.903109 0.226466 0.155606 0.249843 0.155101 0.0865283 0.675857 0.829389 
0.1233 0.28135 0.2058 0.157964 0.0842726 0.265935 0.0268003 0.0735949 0.118413 
0.264813 0.947543 0.0917668 0.783681 0.861222 0.0854791 0.333389 0.0215986 0.0311262 
0.676567 0.00817861 0.0626867 0.184222 0.0316893 0.512774 0.404177 0.887059 0.260156 
0.911596 0.294777 0.290591 0.849336 0.647902 0.0533892 0.953356 0.861782 0.351866 
0.396601 0.956538 0.359517 0.406093 0.303996 0.689776 0.452197 0.738609 0.0995641 
0.96294 0.494735 0.358599 0.479415 0.953707 0.995165 0.954737 0.605014 0.752089 
0.761725 0.0646331 0.300675 0.948565 0.0296619 0.803258 0.860757 0.629478 0.979478 
0.567296 0.268421 0.146291 0.846094 0.866684 0.742475 0.188069 0.220221 0.113029 
0.416907 0.0398418 0.224881 0.774016 0.705151 0.604855 0.322171 0.682423 0.136482 
0.639228 0.438648 0.842355 0.159586 0.66788 0.0602733 0.196439 0.695586 0.247644 
0.480937 0.624483 0.636397 0.370465 0.191081 0.153246 0.472884 0.930229 0.612834 
0.351109 0.617176 0.972987 0.7826 0.866276 0.363814 0.879813 0.144279 0.832813 
0.651984 0.462274 0.671106 0.823889 0.0854075 0.666966 0.957882 0.722247 0.580781 
0.754057 0.105832 0.833467 0.2849 0.72112 0.332225 0.463853 0.181148 0.492919 
0.406572 0.805121 0.485819 0.750809 0.0750258 0.92634 0.228694 0.48174 0.562675 
0.772319 0.193138 0.644093 0.30252 0.381991 0.809774 0.16993 0.690405 0.678386 
0.251956 0.982317 0.440117 0.892074 0.0425207 0.0951825 0.287149 0.989918 0.155442 
0.12872 0.735395 0.0450155 0.933196 0.124716 0.236612 0.323172 0.0444183 0.510335 
0.30873 0.753292 0.823783 0.79847 0.78248 0.834512 0.230146 0.85177 0.74957 
0.87868 0.602349 0.235471 0.583007 0.879293 0.0127657 0.325384 0.027522 0.266796 
0.780146 0.893048 0.682323 0.643458 0.248238 0.0014465 0.509822 0.683486 0.65218 
0.941989 0.295176 0.970693 0.219946 0.970931 0.853126 0.521046 0.960282 0.674731 
0.133765 0.303688 0.503484 0.228695 0.156684 0.0117978 0.742001 0.0943124 0.189595 
0.367474 0.0280147 0.675961 0.384065 0.182636 0.477627 0.369107 0.244611 0.0889866 
0.312122 0.303185 0.29117 0.015965 0.0107653 0.0672522 0.136693 0.0133808 0.729994 
0.472982 0.93126 0.126152 0.376408 0.131709 0.787957 0.230589 0.167999 0.443378 
0.828174 0.343781 0.564861 0.291934 0.0139556 0.42257 0.0222568 0.311542 0.642358 
0.449389 0.350148 0.141389 0.860204 0.868222 0.779039 0.56722 0.690137 0.333995 
0.474387 0.714392 0.703628 0.982824 0.634858 0.373392 0.923138 0.217951 0.567883 
0.714106 0.134109 0.418489 0.530366 0.854334 0.0261975 0.305842 0.115136 0.0616022 
0.726009 0.765349 0.582024 0.399627 0.760322 0.577451 0.859467 0.717867 0.900006 
0.971722 0.942239 0.157121 0.971402 0.575518 0.822345 0.622279 0.318248 0.395204 
0.418185 0.836426 0.580428 0.500007 0.0485323 0.288585 0.0830429 0.754433 0.369527 
0.134398 0.882983 0.628573 0.334672 0.127284 0.558947 0.857493 0.838848 0.442021 
0.841181 0.663081 0.166076 0.488447 0.0353792 0.0481667 0.831105 0.745106 0.98249 
0.828254 0.281784 0.205152 0.192173 0.923268 0.173522 0.967941 0.888139 0.712687 
0.484045 0.0800273 0.996104 0.100054 0.715431 0.466068 0.38348 0.0679873 0.0333028 
0.26733 0.924679 0.331904 0.258847 0.0794143 0.54756 0.511003 0.787367 0.813269 
0.0837425 0.896824 0.0893507 0.0683718 0.252862 0.887856 0.263382 0.152397 0.00133958 
0.727828 0.757261 0.667638 0.373574 0.800864 0.995632 0.657737 0.481633 0.203924 
0.632502 0.844941 0.0853987 0.735638 0.232176 0.80238 0.797942 0.173884 0.0434982 
0.339717 0.872537 0.245103 0.59309 0.308176 0.754659 0.388523 0.684194 0.905519 
0.164082 0.899232 0.158477 0.966872 0.975844 0.872337 0.983577 0.0120219 0.0515067 
0.377233 0.125495 0.969309 0.850732 0.182989 0.318059 0.915914 0.170718 0.146357 
0.883986 0.368505 0.949991 0.472319 0.740347 0.306795 0.0662302 0.464009 0.718299 
0.207554 0.670505 0.444303 0.217461 0.757234 0.418971 0.563839 0.888959 0.245617 
0.784553 0.935505 0.287534 0.104641 0.0932308 0.259002 0.405337 0.49944 0.910323 
0.476566 0.650787 0.431858 0.0722578 0.717941 0.198975 0.976237 0.482369 0.2717 
0.824875 0.340033 0.57899 0.963444 0.664968 0.239108 0.0198303 0.294568 0.636102 
0.79284 0.545907 0.87679 0.954776 0.090653 0.613772 0.63953 0.891439 0.6907 
0.145241 0.183662 0.209631 0.377123 0.338083 0.807964 0.464674 0.0793123 0.347677 
0.814138 0.330636 0.354075 0.839432 0.493829 0.0738518 0.671236 0.0152777 0.823105 
0.543505 0.980621 0.605567 0.834653 0.677566 0.91648 0.291905 0.360542 0.516207 
0.782515 0.141693 0.45269 0.997853 0.705611 0.861409 0.617186 0.773629 0.329297 
0.792715 0.416241 0.265556 0.258001 0.14184 0.0585191 0.324526 0.161629 0.861073 
0.894342 0.813693 0.034013 0.864851 0.239949 0.0353271 0.0614083 0.503548 0.0216229 
0.286778 0.685383 0.567941 0.451274 0.856707 0.0268887 0.678195 0.924976 0.848918 
0.307492 0.0790079 0.628258 0.977644 0.121989 0.343384 0.701446 0.249137 0.147212 
0.206014 0.513802 0.301171 0.36528 0.509354 0.852762 0.223195 0.586122 0.0883233 
0.969019 0.996961 0.195748 0.146992 0.901767 0.605399 0.515176 0.881606 0.571001 
0.111117 0.31391 0.259989 0.323544 0.0849522 0.665243 0.892944 0.300382 0.665426 
0.568061 0.202233 0.435372 0.951469 0.58962 0.853399 0.0140979 0.814741 0.049931 
0.00955273 0.922802 0.637892 0.479135 0.174073 0.155844 0.00084227 0.520005 0.482791 
0.50028 0.909248 0.0895642 0.649258 0.675395 0.731632 0.0148505 0.0743553 0.745829 