# vtk DataFile Version 4.1
vtk output
ASCII
DATASET STRUCTURED_GRID
DIMENSIONS 10 10 1
POINTS 100 double
0 0 0 1 0 0 2 0 0 
3 0 0 4 0 0 5 0 0 
6 0 0 7 0 0 8 0 0 
9 0 0 0 1 0 1 1 0 
2 1 0 3 1 0 4 1 0 
5 1 0 6 1 0 7 1 0 
8 1 0 9 1 0 0 2 0 
1 2 0 2 2 0 3 2 0 
4 2 0 5 2 0 6 2 0 
7 2 0 8 2 0 9 2 0 
0 3 0 1 3 0 2 3 0 
3 3 0 4 3 0 5 3 0 
6 3 0 7 3 0 8 3 0 
9 3 0 0 4 0 1 4 0 
2 4 0 3 4 0 4 4 0 
5 4 0 6 4 0 7 4 0 
8 4 0 9 4 0 0 5 0 
1 5 0 2 5 0 3 5 0 
4 5 0 5 5 0 6 5 0 
7 5 0 8 5 0 9 5 0 
0 6 0 1 6 0 2 6 0 
3 6 0 4 6 0 5 6 0 
6 6 0 7 6 0 8 6 0 
9 6 0 0 7 0 1 7 0 
2 7 0 3 7 0 4 7 0 
5 7 0 6 7 0 7 7 0 
8 7 0 9 7 0 0 8 0 
1 8 0 2 8 0 3 8 0 
4 8 0 5 8 0 6 8 0 
7 8 0 8 8 0 9 8 0 
0 9 0 1 9 0 2 9 0 
3 9 0 4 9 0 5 9 0 
6 9 0 7 9 0 8 9 0 
9 9 0 
POINT_DATA 100
SCALARS vz double
LOOKUP_TABLE default
0.56421102626 0.37642497088 0.042233796654 0.46418181735 0.99918539414 0.22329769777 0.73375535092 0.20180834722 0.55842398453 
0.94123076758 0.070801851767 0.063324385425 0.31775725253 0.83826164771 0.59442338202 0.38846733282 0.031661761 0.95711680778 
0.85123578006 0.88874712116 0.31590802414 0.34979545392 0.64712930502 0.3856301494 0.51400220886 0.61422852725 0.83937005995 
0.086345987065 0.085015527888 0.9887273946 0.42107708085 0.3243812387 0.97613057553 0.99629317808 0.97147024124 0.86628168259 
0.38590223463 0.38638063346 0.74673840015 0.30143833487 0.98096027662 0.87744928109 0.98603927704 0.85048265889 0.34328640177 
0.3473389228 0.89517177575 0.60646329437 0.010792685404 0.84337545316 0.19086237489 0.72390546049 0.86625337262 0.18749980089 
0.53677154711 0.025041441234 0.06024681377 0.060418588392 0.43978656123 0.86115768501 0.2756110319 0.99657800783 0.8680884418 
0.58804592222 0.43624021406 0.97455157935 0.13981279117 0.87483467147 0.82152944025 0.82850058076 0.92944545992 0.24866514324 
0.23450601579 0.33013335585 0.55905138402 0.17730885851 0.2037023555 0.56618683309 0.9088484255 0.075437553147 0.90964903296 
0.018490335853 0.33734252318 0.12348767759 0.18911465874 0.17725234281 0.59545505126 0.067369197606 0.53370391661 0.25369263396 
0.79651224551 0.24829425157 0.91384535655 0.7723232098 0.72590705116 0.70147485265 0.14698149086 0.44735809597 0.19289615088 
0.91250200411 
