# vtk DataFile Version 4.0
vtk output
ASCII
DATASET UNSTRUCTURED_GRID
POINTS 100 double
0 0 0 1 0 0 2 0 0 
3 0 0 4 0 0 5 0 0 
6 0 0 7 0 0 8 0 0 
9 0 0 0 1 0 1 1 0 
2 1 0 3 1 0 4 1 0 
5 1 0 6 1 0 7 1 0 
8 1 0 9 1 0 0 2 0 
1 2 0 2 2 0 3 2 0 
4 2 0 5 2 0 6 2 0 
7 2 0 8 2 0 9 2 0 
0 3 0 1 3 0 2 3 0 
3 3 0 4 3 0 5 3 0 
6 3 0 7 3 0 8 3 0 
9 3 0 0 4 0 1 4 0 
2 4 0 3 4 0 4 4 0 
5 4 0 6 4 0 7 4 0 
8 4 0 9 4 0 0 5 0 
1 5 0 2 5 0 3 5 0 
4 5 0 5 5 0 6 5 0 
7 5 0 8 5 0 9 5 0 
0 6 0 1 6 0 2 6 0 
3 6 0 4 6 0 5 6 0 
6 6 0 7 6 0 8 6 0 
9 6 0 0 7 0 1 7 0 
2 7 0 3 7 0 4 7 0 
5 7 0 6 7 0 7 7 0 
8 7 0 9 7 0 0 8 0 
1 8 0 2 8 0 3 8 0 
4 8 0 5 8 0 6 8 0 
7 8 0 8 8 0 9 8 0 
0 9 0 1 9 0 2 9 0 
3 9 0 4 9 0 5 9 0 
6 9 0 7 9 0 8 9 0 
9 9 0 
CELL_TYPES 0

POINT_DATA 100
SCALARS vz double
LOOKUP_TABLE default
0.193516 0.747128 0.279808 0.563963 0.81582 0.0875251 0.250231 0.367577 0.0159497 
0.759127 0.667375 0.038306 0.106435 0.0675386 0.0582608 0.0397678 0.21649 0.411862 
0.435546 0.402459 0.656171 0.252708 0.996273 0.258684 0.134742 0.992545 0.327382 
0.528333 0.511358 0.727997 0.115254 0.857939 0.52051 0.876534 0.268975 0.194502 
0.992077 0.246892 0.432915 0.947184 0.794873 0.379139 0.482695 0.462146 0.488547 
0.296099 0.592082 0.958905 0.275347 0.818787 0.963417 0.78664 0.415075 0.699282 
0.159294 0.788467 0.034976 0.823502 0.0968221 0.34441 0.77701 0.0187165 0.733978 
0.76763 0.74734 0.779624 0.647357 0.873176 0.833444 0.149214 0.697746 0.00689958 
0.295743 0.206743 0.615821 0.332026 0.704494 0.694815 0.137113 0.880218 0.210293 
0.117739 0.0426737 0.658705 0.118264 0.610051 0.236702 0.206319 0.112164 0.182147 
0.00132724 0.793426 0.0441804 0.371733 0.478867 0.368898 0.116759 0.679061 0.49993 
0.121144 
