# vtk DataFile Version 4.0
vtk output
ASCII
DATASET UNSTRUCTURED_GRID
POINTS 100 double
0 0 0 1 0 0 2 0 0 
3 0 0 4 0 0 5 0 0 
6 0 0 7 0 0 8 0 0 
9 0 0 0 1 0 1 1 0 
2 1 0 3 1 0 4 1 0 
5 1 0 6 1 0 7 1 0 
8 1 0 9 1 0 0 2 0 
1 2 0 2 2 0 3 2 0 
4 2 0 5 2 0 6 2 0 
7 2 0 8 2 0 9 2 0 
0 3 0 1 3 0 2 3 0 
3 3 0 4 3 0 5 3 0 
6 3 0 7 3 0 8 3 0 
9 3 0 0 4 0 1 4 0 
2 4 0 3 4 0 4 4 0 
5 4 0 6 4 0 7 4 0 
8 4 0 9 4 0 0 5 0 
1 5 0 2 5 0 3 5 0 
4 5 0 5 5 0 6 5 0 
7 5 0 8 5 0 9 5 0 
0 6 0 1 6 0 2 6 0 
3 6 0 4 6 0 5 6 0 
6 6 0 7 6 0 8 6 0 
9 6 0 0 7 0 1 7 0 
2 7 0 3 7 0 4 7 0 
5 7 0 6 7 0 7 7 0 
8 7 0 9 7 0 0 8 0 
1 8 0 2 8 0 3 8 0 
4 8 0 5 8 0 6 8 0 
7 8 0 8 8 0 9 8 0 
0 9 0 1 9 0 2 9 0 
3 9 0 4 9 0 5 9 0 
6 9 0 7 9 0 8 9 0 
9 9 0 
CELL_TYPES 0

POINT_DATA 100
SCALARS vz double
LOOKUP_TABLE default
0.222287 0.231185 0.875542 0.704251 0.365206 0.917426 0.653053 0.849586 0.397046 
0.529159 0.83137 0.136708 0.574901 0.631134 0.166372 0.704887 0.373524 0.982535 
0.82569 0.754065 0.221183 0.65679 0.0961305 0.167016 0.952218 0.981565 0.92167 
0.802357 0.381475 0.571019 0.85932 0.487467 0.746186 0.0602526 0.534726 0.933344 
0.0706544 0.822265 0.378906 0.0318808 0.637971 0.73033 0.826111 0.859863 0.890066 
0.16451 0.839645 0.602898 0.146483 0.53886 0.645434 0.528684 0.0972231 0.825931 
0.986599 0.493219 0.1702 0.889127 0.64584 0.767347 0.795089 0.740701 0.651079 
0.794915 0.849986 0.461605 0.417437 0.393164 0.593811 0.899755 0.290169 0.293279 
0.393413 0.0139954 0.894105 0.152984 0.755355 0.487464 0.000960165 0.66594 0.58652 
0.315432 0.820614 0.0307614 0.380232 0.671216 0.184931 0.567229 0.766623 0.841091 
0.873843 0.372094 0.45618 0.447408 0.959471 0.634136 0.357899 0.680289 0.916339 
0.211344 
