# vtk DataFile Version 4.1
vtk output
ASCII
DATASET UNSTRUCTURED_GRID
POINTS 16200 double
0 0 1 0 0 1 0 0 1 
0 0 1 0 0 1 0 0 1 
0 0 1 0 0 1 0 0 1 
0 0 1 0 0 1 0 0 1 
0 0 1 0 0 1 0 0 1 
0 0 1 0 0 1 0 0 1 
0 0 1 0 0 1 0 0 1 
0 0 1 0 0 1 0 0 1 
0 0 1 0 0 1 0 0 1 
0 0 1 0 0 1 0 0 1 
0 0 1 0 0 1 0 0 1 
0 0 1 0 0 1 0 0 1 
0 0 1 0 0 1 0 0 1 
0 0 1 0 0 1 0 0 1 
0 0 1 0 0 1 0 0 1 
0 0 1 0 0 1 0 0 1 
0 0 1 0 0 1 0 0 1 
0 0 1 0 0 1 0 0 1 
0 0 1 0 0 1 0 0 1 
0 0 1 0 0 1 0 0 1 
0 0 1 0 0 1 0 0 1 
0 0 1 0 0 1 0 0 1 
0 0 1 0 0 1 0 0 1 
0 0 1 0 0 1 0 0 1 
0 0 1 0 0 1 0 0 1 
0 0 1 0 0 1 0 0 1 
0 0 1 0 0 1 0 0 1 
0 0 1 0 0 1 0 0 1 
0 0 1 0 0 1 0 0 1 
0 0 1 0 0 1 0 0 1 
0.017452406437 0 0.99984769516 0.017449748351 0.00030458649045 0.99984769516 0.017441774903 0.00060908020091 0.99984769516 
0.017428488521 0.00091338837964 0.99984769516 0.017409893252 0.0012174183314 0.99984769516 0.017385994762 0.0015210774458 0.99984769516 
0.017356800329 0.0018242732252 0.99984769516 0.017322318846 0.0021269133134 0.99984769516 0.017282560818 0.0024289055231 0.99984769516 
0.017237538353 0.0027301578647 0.99984769516 0.017187265168 0.0030305785737 0.99984769516 0.017131756575 0.0033300761392 0.99984769516 
0.017071029484 0.0036285593312 0.99984769516 0.017005102391 0.0039259372289 0.99984769516 0.016933995379 0.0042221192481 0.99984769516 
0.016857730109 0.0045170151688 0.99984769516 0.01677632981 0.004810535163 0.99984769516 0.016689819279 0.0051025898216 0.99984769516 
0.016598224867 0.0053930901819 0.99984769516 0.016501574475 0.0056819477546 0.99984769516 0.016399897544 0.0059690745511 0.99984769516 
0.016293225045 0.0062543831096 0.99984769516 0.016181589472 0.0065377865224 0.99984769516 0.01606502483 0.0068191984621 0.99984769516 
0.015943566626 0.0070985332079 0.99984769516 0.015817251857 0.0073757056717 0.99984769516 0.015686118999 0.0076506314241 0.99984769516 
0.015550207998 0.0079232267201 0.99984769516 0.015409560253 0.0081934085245 0.99984769516 0.015264218607 0.0084610945372 0.99984769516 
0.015114227332 0.0087262032186 0.99984769516 0.014959632117 0.008988653814 0.99984769516 0.014800480052 0.0092483663783 0.99984769516 
0.014636819619 0.0095052618007 0.99984769516 0.014468700668 0.0097592618282 0.99984769516 0.014296174411 0.01001028909 0.99984769516 
0.014119293401 0.010258267121 0.99984769516 0.013938111517 0.010503120384 0.99984769516 0.013752683949 0.010744774295 0.99984769516 
0.01356306718 0.010983155244 0.99984769516 0.01336931897 0.011218190617 0.99984769516 0.013171498336 0.011449808821 0.99984769516 
0.012969665536 0.011677939302 0.99984769516 0.01276388205 0.011902512569 0.99984769516 0.012554210562 0.012123460216 0.99984769516 
0.01234071494 0.01234071494 0.99984769516 0.012123460216 0.012554210562 0.99984769516 0.011902512569 0.01276388205 0.99984769516 
0.011677939302 0.012969665536 0.99984769516 0.011449808821 0.013171498336 0.99984769516 0.011218190617 0.01336931897 0.99984769516 
0.010983155244 0.01356306718 0.99984769516 0.010744774295 0.013752683949 0.99984769516 0.010503120384 0.013938111517 0.99984769516 
0.010258267121 0.014119293401 0.99984769516 0.01001028909 0.014296174411 0.99984769516 0.0097592618282 0.014468700668 0.99984769516 
0.0095052618007 0.014636819619 0.99984769516 0.0092483663783 0.014800480052 0.99984769516 0.008988653814 0.014959632117 0.99984769516 
0.0087262032186 0.015114227332 0.99984769516 0.0084610945372 0.015264218607 0.99984769516 0.0081934085245 0.015409560253 0.99984769516 
0.0079232267201 0.015550207998 0.99984769516 0.0076506314241 0.015686118999 0.99984769516 0.0073757056717 0.015817251857 0.99984769516 
0.0070985332079 0.015943566626 0.99984769516 0.0068191984621 0.01606502483 0.99984769516 0.0065377865224 0.016181589472 0.99984769516 
0.0062543831096 0.016293225045 0.99984769516 0.0059690745511 0.016399897544 0.99984769516 0.0056819477546 0.016501574475 0.99984769516 
0.0053930901819 0.016598224867 0.99984769516 0.0051025898216 0.016689819279 0.99984769516 0.004810535163 0.01677632981 0.99984769516 
0.0045170151688 0.016857730109 0.99984769516 0.0042221192481 0.016933995379 0.99984769516 0.0039259372289 0.017005102391 0.99984769516 
0.0036285593312 0.017071029484 0.99984769516 0.0033300761392 0.017131756575 0.99984769516 0.0030305785737 0.017187265168 0.99984769516 
0.0027301578647 0.017237538353 0.99984769516 0.0024289055231 0.017282560818 0.99984769516 0.0021269133134 0.017322318846 0.99984769516 
0.0018242732252 0.017356800329 0.99984769516 0.0015210774458 0.017385994762 0.99984769516 0.0012174183314 0.017409893252 0.99984769516 
0.00091338837964 0.017428488521 0.99984769516 0.00060908020091 0.017441774903 0.99984769516 0.00030458649045 0.017449748351 0.99984769516 
0.034899496703 0 0.99939082702 0.03489418134 0.00060908020091 0.99939082702 0.034878236872 0.0012179748701 0.99939082702 
0.034851668155 0.0018264985323 0.99939082702 0.034814483283 0.0024344658254 0.99939082702 0.034766693581 0.0030416915566 0.99939082702 
0.034708313608 0.0036479907591 0.99939082702 0.034639361146 0.0042531787483 0.99939082702 0.0345598572 0.004857071178 0.99939082702 
0.034469825986 0.0054594840968 0.99939082702 0.034369294929 0.0060602340039 0.99939082702 0.034258294652 0.006659137905 0.99939082702 
0.034136858966 0.0072560133681 0.99939082702 0.034005024863 0.0078506785793 0.99939082702 0.0338628325 0.0084429523977 0.99939082702 
0.033710325189 0.0090326544111 0.99939082702 0.033547549388 0.0096196049904 0.99939082702 0.033374554677 0.010203625345 0.99939082702 
0.033191393754 0.010784537576 0.99939082702 0.032998122411 0.011362164733 0.99939082702 0.03279479952 0.011936330864 0.99939082702 
0.032581487016 0.012506861073 0.99939082702 0.032358249875 0.013073581572 0.99939082702 0.032125156098 0.01363631973 0.99939082702 
0.031882276687 0.014194904134 0.99939082702 0.031629685625 0.014749164632 0.99939082702 0.031367459855 0.015298932392 0.99939082702 
0.031095679253 0.015844039949 0.99939082702 0.030814426605 0.016384321257 0.99939082702 0.030523787585 0.016919611743 0.99939082702 
0.030223850724 0.017449748351 0.99939082702 0.029914707384 0.017974569597 0.99939082702 0.029596451735 0.018493915615 0.99939082702 
0.02926918072 0.019007628207 0.99939082702 0.02893299403 0.019515550891 0.99939082702 0.028587994069 0.020017528949 0.99939082702 
0.028234285927 0.020513409474 0.99939082702 0.027871977349 0.021003041416 0.99939082702 0.027501178697 0.021486275628 0.99939082702 
0.027122002919 0.021962964912 0.99939082702 0.026734565517 0.022432964065 0.99939082702 0.026338984506 0.022896129919 0.99939082702 
0.025935380386 0.02335232139 0.99939082702 0.025523876098 0.023801399518 0.99939082702 0.02510459699 0.024243227509 0.99939082702 
0.024677670778 0.024677670778 0.99939082702 0.024243227509 0.02510459699 0.99939082702 0.023801399518 0.025523876098 0.99939082702 
0.02335232139 0.025935380386 0.99939082702 0.022896129919 0.026338984506 0.99939082702 0.022432964065 0.026734565517 0.99939082702 
0.021962964912 0.027122002919 0.99939082702 0.021486275628 0.027501178697 0.99939082702 0.021003041416 0.027871977349 0.99939082702 
0.020513409474 0.028234285927 0.99939082702 0.020017528949 0.028587994069 0.99939082702 0.019515550891 0.02893299403 0.99939082702 
0.019007628207 0.02926918072 0.99939082702 0.018493915615 0.029596451735 0.99939082702 0.017974569597 0.029914707384 0.99939082702 
0.017449748351 0.030223850724 0.99939082702 0.016919611743 0.030523787585 0.99939082702 0.016384321257 0.030814426605 0.99939082702 
0.015844039949 0.031095679253 0.99939082702 0.015298932392 0.031367459855 0.99939082702 0.014749164632 0.031629685625 0.99939082702 
0.014194904134 0.031882276687 0.99939082702 0.01363631973 0.032125156098 0.99939082702 0.013073581572 0.032358249875 0.99939082702 
0.012506861073 0.032581487016 0.99939082702 0.011936330864 0.03279479952 0.99939082702 0.011362164733 0.032998122411 0.99939082702 
0.010784537576 0.033191393754 0.99939082702 0.010203625345 0.033374554677 0.99939082702 0.0096196049904 0.033547549388 0.99939082702 
0.0090326544111 0.033710325189 0.99939082702 0.0084429523977 0.0338628325 0.99939082702 0.0078506785793 0.034005024863 0.99939082702 
0.0072560133681 0.034136858966 0.99939082702 0.006659137905 0.034258294652 0.99939082702 0.0060602340039 0.034369294929 0.99939082702 
0.0054594840968 0.034469825986 0.99939082702 0.004857071178 0.0345598572 0.99939082702 0.0042531787483 0.034639361146 0.99939082702 
0.0036479907591 0.034708313608 0.99939082702 0.0030416915566 0.034766693581 0.99939082702 0.0024344658254 0.034814483283 0.99939082702 
0.0018264985323 0.034851668155 0.99939082702 0.0012179748701 0.034878236872 0.99939082702 0.00060908020091 0.03489418134 0.99939082702 
0.052335956243 0 0.99862953475 0.052327985223 0.00091338837964 0.99862953475 0.052304074592 0.0018264985323 0.99862953475 
0.052264231634 0.0027390523159 0.99862953475 0.052208468484 0.0036507717575 0.99862953475 0.052136802129 0.0045613791388 0.99862953475 
0.052049254399 0.0054705970797 0.99862953475 0.051945851961 0.0063781486238 0.99862953475 0.051826626314 0.007283757322 0.99862953475 
0.051691613775 0.0081871473172 0.99862953475 0.051540855469 0.009088043428 0.99862953475 0.05137439732 0.0099861712328 0.99862953475 
0.051192290031 0.010881257153 0.99862953475 0.050994589075 0.011773028537 0.99862953475 0.050781354673 0.012661213742 0.99862953475 
0.050552651779 0.013545542219 0.99862953475 0.050308550057 0.014425744593 0.99862953475 0.050049123863 0.015301552745 0.99862953475 
0.049774452221 0.016172699896 0.99862953475 0.049484618799 0.017038920686 0.99862953475 0.049179711883 0.017899951255 0.99862953475 
0.04885982435 0.018755529326 0.99862953475 0.048525053642 0.019605394281 0.99862953475 0.048175501732 0.020449287243 0.99862953475 
0.047811275097 0.021286951154 0.99862953475 0.047432484685 0.022118130854 0.99862953475 0.047039245879 0.022942573157 0.99862953475 
[...]
POINT_DATA 16200
SCALARS vz double
LOOKUP_TABLE default
0.97331214106 0.63107180508 0.88467314775 0.53616025829 0.83826899365 0.86991485065 0.93559709181 0.8082496736 0.25490861768 
0.39209438028 0.94865701652 0.15268364889 0.43892941736 0.6108080869 0.59935900542 0.94386961472 0.46694283922 0.6852984628 
0.29454803399 0.35561939857 0.20157813376 0.57650480557 0.71852237697 0.92506117012 0.1390510422 0.44022855484 0.60798252797 
0.9917446094 0.70470856676 0.14955653375 0.48780337424 0.36060221012 0.12264740637 0.17103775699 0.27359099046 0.07946988155 
0.85239355342 0.084874964754 0.39583697769 0.94913829493 0.63424324354 0.26271596166 0.48940501096 0.54710049157 0.84145703459 
0.79909238521 0.75156556542 0.46511192292 0.27108579017 0.46133891258 0.1890030834 0.78702985901 0.4841709698 0.72806020936 
0.77394270324 0.68931204699 0.98728734835 0.31994012202 0.90731197186 0.093152386449 0.79072267594 0.35822494643 0.98572724265 
0.0018832485215 0.9709514122 0.75407958696 0.26277948296 0.18035069944 0.53621889462 0.64058091706 0.85939306405 0.334165303 
0.48914563912 0.95914496361 0.15053139399 0.23019376275 0.26491344046 0.32441607242 0.019354413656 0.52722960271 0.020995672273 
0.044687903824 0.72227260693 0.40890855168 0.22401772307 0.19591799613 0.43609428448 0.012881141106 0.80547399605 0.67189778268 
0.54281531621 0.046620753353 0.43456822131 0.34364207786 0.10022163536 0.22163858895 0.94638322166 0.77898636411 0.64491758905 
0.84389338117 0.64491257729 0.220237701 0.022258893158 0.61322410089 0.26561005519 0.5744027997 0.91343898882 0.29281397112 
0.99962431177 0.64818791105 0.42976062085 0.64227816992 0.61942173092 0.63118734548 0.48710731652 0.027453305246 0.087842413772 
0.14167728041 0.21786036185 0.57066757432 0.68931814778 0.089439311075 0.40503402131 0.527975012 0.79879620928 0.1246766764 
0.48689095748 0.87788163092 0.30218458406 0.44127809105 0.73706501337 0.94504068056 0.8899677224 0.25662177575 0.37966277311 
0.038209656661 0.83381249299 0.64934721706 0.237033215 0.67190854822 0.53459485975 0.22317621324 0.060096452988 0.13740641525 
0.78093475814 0.06684339356 0.99841093966 0.32830120057 0.096333419362 0.35254069416 0.1430436903 0.91252691821 0.19203502561 
0.50396908468 0.37222101903 0.53085405347 0.19117541457 0.095449181957 0.65356603912 0.80017385129 0.22977477783 0.8764358186 
0.49293483134 0.9271719656 0.45542426833 0.16528172729 0.89268942078 0.81531254061 0.56862139369 0.81437783917 0.56407979117 
0.77997436987 0.46030063255 0.64215653975 0.56099159357 0.71356065072 0.16132848978 0.34144706476 0.31453231157 0.63276762393 
0.43876650879 0.38038283207 0.83749114503 0.71169260396 0.17515548064 0.17833286157 0.54853589353 0.28797640536 0.043896143727 
0.65295025006 0.048414014904 0.13343520471 0.618769147 0.66976039032 0.74651862732 0.65161403431 0.21758923672 0.71978981213 
0.25314126077 0.060266518195 0.13123948719 0.77242037242 0.57485270832 0.80771527434 0.22670635383 0.9826947779 0.90067483744 
0.63052901195 0.077564013516 0.98658458967 0.78576257679 0.89582602823 0.29516148503 0.85306957211 0.84658267214 0.30829414994 
0.77665610767 0.8065610446 0.24106136694 0.4776372353 0.29282964146 0.48082308212 0.49996272656 0.43236626913 0.78602485657 
0.22920520268 0.19267042879 0.42706475325 0.30353982118 0.28834015446 0.46644736349 0.88167347229 0.47052719764 0.087260986235 
0.36591761299 0.48046779443 0.88060137806 0.69797401989 0.76045307263 0.22863160226 0.044086870512 0.7338814987 0.11867798631 
0.89256956433 0.48666950482 0.91530163536 0.33336379065 0.69478626069 0.097116043052 0.78205077131 0.28259666696 0.55132711203 
0.87189217198 0.76563453095 0.19283244471 0.49132115683 0.82569365069 0.49316991263 0.41683737103 0.03225339267 0.053213202838 
0.18924797241 0.60363461413 0.26035306153 0.36622948618 0.99362848073 0.039170396846 0.84071587849 0.26651033989 0.67223720634 
0.033212578103 0.45299883104 0.87944674741 0.92940459714 0.54385627664 0.09935698729 0.68374350565 0.78019533801 0.46757797411 
0.94959926232 0.28901225738 0.10949309881 0.1543640447 0.02272990378 0.35640854406 0.9320024604 0.21981153297 0.93623325398 
0.44823978541 0.79969347032 0.29540779325 0.60936108923 0.39057855376 0.85635553277 0.56627959847 0.113003506 0.86099957554 
0.56253364702 0.4866733476 0.68945741995 0.52572976258 0.74661620132 0.6240988125 0.075603044187 0.85837209678 0.023908058531 
0.26689245907 0.81990776057 0.80588552842 0.98259327258 0.50508354756 0.56216480299 0.45233017038 0.1484496664 0.65550694756 
0.60566705029 0.84853958916 0.34550888186 0.44990167755 0.054205579448 0.56503727244 0.67103367387 0.084443508949 0.97734986344 
0.33565090545 0.15873744537 0.78582056585 0.52617131177 0.87724046019 0.0079784632678 0.63729923055 0.89782975798 0.77533312523 
0.32028873685 0.18445555311 0.059362509839 0.11123359989 0.139641314 0.70453695099 0.54994690993 0.38062776451 0.08382170569 
0.046454044559 0.25071072187 0.15167294516 0.83977948831 0.13896861631 0.17706912069 0.50875638783 0.1022985624 0.84846146441 
0.29063013897 0.29305981622 0.1274423502 0.056967333859 0.72173552278 0.44113321747 0.96350516731 0.98273165741 0.25015260686 
0.51385754702 0.13633612829 0.208061212 0.6797086814 0.29708787778 0.10513800589 0.98470770541 0.85190356964 0.75062434828 
0.90599948254 0.19158810954 0.25185983045 0.53538263669 0.89310014873 0.18137268307 0.79737107055 0.83752212712 0.39282288933 
0.64409424688 0.20923961644 0.1797676976 0.13435811976 0.59499633439 0.8468208449 0.85881781903 0.20109774714 0.84896489141 
0.87915447954 0.0082991524476 0.4347700634 0.18047502681 0.75956629056 0.34737237069 0.11693166893 0.58008621995 0.60220509694 
0.32818533717 0.78816339705 0.46323353501 0.25806606172 0.028231318733 0.9732460071 0.16841947546 0.49955212732 0.97741091673 
0.53771445966 0.65540595262 0.85580030899 0.5208066207 0.47281545552 0.64780050785 0.2153742473 0.59461630741 0.99621690225 
0.0081929193569 0.27712183551 0.079629337801 0.21026908546 0.41109937942 0.80293578026 0.33829295398 0.036394471404 0.97439480414 
0.77545406619 0.052944794006 0.7833220361 0.69636989813 0.94863626357 0.64702154744 0.58758844003 0.12026087558 0.3451986606 
0.4163670211 0.2590145161 0.73474437134 0.92218286369 0.71734222191 0.68849671036 0.93336714828 0.58944878509 0.00565641864 
0.01261480995 0.4172048294 0.97239594245 0.82587944299 0.77737776217 0.56146316053 0.44145257056 0.22917842637 0.92774280147 
0.55921708077 0.9316347293 0.81184200331 0.58748893592 0.66575901949 0.90576490181 0.69627215114 0.51687725283 0.56433901863 
0.29906852662 0.88269937465 0.95075979206 0.38476139225 0.09524012648 0.60438091534 0.97469443729 0.3515524052 0.48583402886 
0.24715831326 0.54894506064 0.96930069798 0.69561075813 0.56688141857 0.67567748255 0.33613303774 0.90490530964 0.31905553885 
0.53984141792 0.029748784467 0.25984791497 0.76955041704 0.38833554192 0.088383832015 0.59742095128 0.066445083151 0.64510828578 
0.88395744937 0.14909903385 0.84958209604 0.60620816157 0.26998001714 0.45114828829 0.98642173462 0.49735214023 0.28883389711 
0.90081232936 0.37521574679 0.20994316915 0.70611654389 0.7976539473 0.39100011535 0.15553437674 0.64439789708 0.92006182254 
0.26124734696 0.95243005709 0.07250100724 0.2875915235 0.85819154645 0.71523156219 0.18044899683 0.57718436359 0.81283007569 
0.99541653407 0.70121085364 0.46197970462 0.37036915414 0.87918931275 0.5082822482 0.31622585148 0.61692979947 0.64126346161 
0.27113750977 0.2422631135 0.96086283997 0.27135736487 0.18267366558 0.60543023805 0.32490332248 0.24336160327 0.024093154421 
0.9546755192 0.073588805718 0.22368896135 0.0057463366321 0.95052716043 0.88765562961 0.085456697678 0.77048245109 0.80490900992 
0.89410311825 0.36352530342 0.21274171604 0.81068339306 0.28035985093 0.70336870749 0.10873202532 0.58314448532 0.35612011387 
0.8511253901 0.93114176042 0.97734736336 0.92069300682 0.27107791319 0.60351989688 0.038165012101 0.34266985628 0.52203606518 
0.1781741281 0.9473923329 0.34496367292 0.53315672065 0.26145148919 0.96921147657 0.69498654193 0.012505861997 0.92638863601 
0.25071886101 0.2694621208 0.05104931199 0.86999807901 0.84375997216 0.21723430052 0.86047039236 0.20112017415 0.78000119031 
0.16997512173 0.62261030985 0.62742952766 0.17331744306 0.64681070349 0.31183513882 0.96613806236 0.87735543273 0.78565627809 
0.06570945843 0.82788282197 0.14509215631 0.58715184666 0.051596669827 0.95006717172 0.79988306145 0.22772848642 0.5360537977 
0.20899747677 0.46944897064 0.49181819298 0.42437394841 0.090911685984 0.80596335354 0.53964565022 0.28470821118 0.018110481901 
0.5780273376 0.45680949628 0.191798467 0.70314988745 0.14078091649 0.81321704576 0.95984292398 0.77928742547 0.12187572393 
0.46225864977 0.45493182377 0.22373626207 0.13907601538 0.71617548622 0.43557138821 0.61769862023 0.64746845072 0.91997935712 
0.41814265981 0.52428490208 0.62578894482 0.51096332745 0.097981162435 0.10072193554 0.5461330543 0.74572519217 0.28008418088 
0.11156402831 0.89807863811 0.21207478602 0.18627718386 0.24325731577 0.3932123003 0.24371490145 0.70977622088 0.14540908632 
0.16622350876 0.07813341083 0.84075254055 0.0096743066122 0.18664786154 0.13472815746 0.58979409716 0.50936941005 0.25646917405 
0.17046778996 0.67946711682 0.26351820128 0.4369797539 0.43095224014 0.84635736042 0.058149883418 0.098890393995 0.63700693556 
0.13755772363 0.32200435089 0.35921870965 0.72547433815 0.079875127908 0.4254184226 0.056270571815 0.27166975718 0.12423901943 
0.37432642406 0.55721131422 0.43084928145 0.89446175456 0.74745193247 0.76532641367 0.82119741918 0.1498798459 0.11946693118 
0.70316264264 0.83935563811 0.00092292986577 0.41035494838 0.21185536873 0.77398084244 0.49492644271 0.41092641454 0.88126453338 
0.67597137804 0.28365092121 0.25286990966 0.56856234068 0.53079799845 0.40364263125 0.013765840566 0.0016924684602 0.59755378624 
0.061441350658 0.32080709131 0.6342781393 0.24552142088 0.85728875574 0.98473955799 0.074131767951 0.70276434651 0.57738825597 
0.72011522175 0.32471288742 0.6789951562 0.75982711939 0.59619543495 0.90232527953 0.73242830489 0.55925414925 0.87709808828 
0.51095275789 0.25029280937 0.37861305838 0.95560807983 0.49759633947 0.090486931874 0.55289257573 0.33324624729 0.90185861205 
0.045257722292 0.29270574622 0.19660327621 0.6956920703 0.52395095917 0.22407598268 0.54195845651 0.21318229405 0.21519558293 
0.31704922372 0.3168331722 0.53979404879 0.69092291629 0.037801659769 0.48000382596 0.82395371037 0.80168108264 0.0022807642248 
0.33519312873 0.35078259241 0.87641005867 0.5788688388 0.41249948118 0.076944191693 0.55083954435 0.0068801468908 0.51702287346 
0.65887302378 0.33499608348 0.2346062764 0.48903702274 0.71330242721 0.69396959368 0.43918156588 0.88768579847 0.10745134778 
0.00080286796192 0.3259736246 0.91138958377 0.94578765025 0.33615261672 0.87768446421 0.24592775973 0.19510435542 0.90071134547 
0.36583285875 0.72802532779 0.6239072689 0.6952992507 0.066026404543 0.74474439508 0.1125936008 0.41149152669 0.41015827571 
0.83836670409 0.094665108792 0.15233210729 0.23575616418 0.81043155574 0.26111747485 0.90804618284 0.58756817137 0.95161623052 
0.45671149532 0.222787248 0.97524825155 0.78623686383 0.40237715876 0.15229639722 0.56069243571 0.42512597894 0.27051596945 
0.060269486088 0.95797318207 0.014347852237 0.26239338789 0.44278385974 0.14858375832 0.4029114855 0.79774814823 0.049407854455 
0.87455652422 0.98164343095 0.64867923746 0.69684779275 0.033712898919 0.21384054915 0.60392552873 0.036265066126 0.30133207035 
0.2084504476 0.37690000426 0.74606398065 0.024897997098 0.73408278843 0.17477952303 0.94671302237 0.28462627868 0.69840088813 
0.91981761426 0.74677686658 0.068014182273 0.13211809648 0.98757335892 0.54511242857 0.44209826701 0.87495964371 0.97245715982 
0.43013478208 0.025648076208 0.34654952635 0.59582221894 0.05808369645 0.80114101926 0.64297685154 0.40672189489 0.2847481183 
0.82400915176 0.93091236156 0.62838440161 0.17291657311 0.15348203399 0.55451647398 0.5296124833 0.41047089569 0.61991123584 
0.76495504497 0.86585925707 0.21491920078 0.77120539149 0.010976066305 0.46741044248 0.18766675214 0.16784528163 0.74507107893 
0.8306665341 0.64389129419 0.44610220166 0.88178819242 0.47754005734 0.40815466588 0.73651497749 0.4826039521 0.41660785898 
0.77496814286 0.15455189889 0.66047167822 0.35955171831 0.1270789687 0.94816546939 0.90382646306 0.15426197596 0.70648442511 
0.43965849417 0.9755244081 0.44958985159 0.019673695039 0.10132054884 0.67299460656 0.52784188322 0.71296548186 0.53749027743 
0.72449385627 0.19618272178 0.79191912281 0.2608349095 0.19258577543 0.94594123268 0.39231833147 0.4878342327 0.73587115746 
0.11849527787 0.39072124103 0.81001787078 0.52318331255 0.71632016532 0.68482849934 0.67475580419 0.16931562227 0.067438634257 
0.81214694565 0.50470817491 0.68889706232 0.13191374636 0.033321856439 0.23434098191 0.36881796833 0.62945491515 0.32420048055 
0.84725032878 0.23272807332 0.51419142468 0.16194112344 0.76349741489 0.28402600435 0.059698927232 0.48688923233 0.15047903362 
0.48379181848 0.043375311829 0.2628374775 0.36203795304 0.27079747705 0.53746883909 0.61245406332 0.40251865902 0.8274286623 
0.87614462479 0.044684577499 0.20236748655 0.012789074673 0.52360574299 0.86483783212 0.5528848701 0.75620376095 0.43358190584 
0.81656970048 0.312812271 0.18243965077 0.52373314027 0.038556840149 0.32202389382 0.36628636127 0.46906569282 0.29540317476 
0.39573280991 0.85212053407 0.078830794184 0.064499820212 0.61966507898 0.51949241483 0.45601994815 0.76633970183 0.97609002011 
0.97012619133 0.35559845127 0.210460085 0.96649313694 0.68322580509 0.77744198794 0.5660943699 0.30935569275 0.51135866187 
0.81208107568 0.58978381335 0.39216891815 0.38013585907 0.57044879549 0.43790001094 0.74280359947 0.81982762177 0.44121718959 
0.86501481572 0.18187371261 0.90213191614 0.63436238661 0.3665572768 0.62853110212 0.26127516037 0.76747336126 0.25328415492 
0.80123113051 0.55588221623 0.91220848094 0.30252002914 0.85374541405 0.061471620033 0.5801398409 0.094040577598 0.62411570146 
0.44968211401 0.18080909593 0.24804479014 0.92398685556 0.6553691556 0.23834151346 0.71580720608 0.55063015635 0.27499143957 
0.39118167109 0.037020844367 0.17412752672 0.6115261621 0.62291800526 0.9815131707 0.0763076209 0.82158592509 0.78509785333 
0.24083930916 0.43883644743 0.78111234782 0.83532491163 0.63546869741 0.11864214414 0.2376944096 0.85989946553 0.61088330364 
0.64505896288 0.84661761522 0.99281443319 0.97031392484 0.10358852278 0.92707672602 0.38813572017 0.71511470584 0.66763524029 
0.020468278996 0.4084748713 0.72671513648 0.089874002587 0.90539546045 0.8039769031 0.75788542222 0.97931525428 0.62061581005 
0.38324918395 0.5694267289 0.9589198262 0.24229486006 0.73413758772 0.77695652179 0.98517480028 0.66480990614 0.17971631739 
0.7794147111 0.03222984934 0.21634058069 0.78429665015 0.67021041854 0.085958933286 0.42697213275 0.40150601415 0.60425809099 
0.81254209635 0.53998968688 0.75183734907 0.0096961281735 0.58186053652 0.35935919382 0.41949785068 0.091776767044 0.88923086392 
0.9145362992 0.12792410314 0.61692267604 0.33624805479 0.64563660139 0.68018430856 0.51278925129 0.69777463555 0.30608529832 
0.094785004297 0.24812037962 0.039238012865 0.95675712367 0.5020406568 0.42673088343 0.26752109872 0.85571097289 0.59478192336 
0.89459321352 0.36264292041 0.11669186143 0.21583335851 0.12814577877 0.73823064805 0.77035278004 0.17169860532 0.8035030146 
0.14695723661 0.37390119797 0.078069452076 0.6778099968 0.77769304094 0.21253199926 0.2210915583 0.77703010988 0.40956003323 
0.14605475927 0.8620310514 0.76515231954 0.25539260497 0.96767377374 0.26231468251 0.85610550936 0.46607838445 0.20515742108 
0.35229862578 0.29648485852 0.44319644894 0.18349588412 0.67865714801 0.25746636832 0.65100430746 0.4656119618 0.57270964818 
0.81366375325 0.77720660249 0.049878407671 0.14148428177 0.7852092172 0.13571518745 0.49540563826 0.14581156258 0.77184827549 
0.64824287309 0.45979509687 0.62629817819 0.64948790088 0.77871751777 0.97993486196 0.96314462449 0.34351878314 0.36402784613 
0.2263272641 0.96268202715 0.66687200785 0.0090707016276 0.72968376926 0.61650009128 0.23565683059 0.90092305647 0.30484614168 
0.25484901427 0.45064504782 0.49408025116 0.35314721579 0.24663591888 0.58982483597 0.11508639817 0.87696609242 0.64792519514 
0.447179391 0.62836761992 0.87828357808 0.65096110807 0.35895522836 0.47781474605 0.15327838524 0.4339786299 0.82020330418 
0.31170560967 0.43445357014 0.60462209669 0.44091141949 0.050922422247 0.82793859833 0.81500035 0.034523309376 0.31012813935 
0.023663763105 0.75539923876 0.97048646543 0.088884821351 0.60013511466 0.80916379789 0.75185854794 0.40470589507 0.90465243153 
0.98285016739 0.50576475044 0.38755348594 0.86714079255 0.016141158304 0.89227144269 0.66715586061 0.11978700944 0.73350388044 
0.71682320121 0.63994015637 0.2486599325 0.59254872137 0.29420600487 0.63064432118 0.14127966517 0.33467258462 0.98551639827 
0.27434127166 0.53479238891 0.13083947494 0.50370020699 0.80603961255 0.38893528916 0.49473051513 0.74500635935 0.66959965142 
0.076882242602 0.074493947065 0.31840310296 0.7512475481 0.27152613474 0.014711027118 0.79514835692 0.074552557237 0.24117571601 
0.84081239341 0.79606073471 0.55106118069 0.57199180389 0.11444684217 0.035445964384 0.33568249021 0.77963505466 0.89580850386 
0.51292683496 0.34698859648 0.46406653832 0.47280095144 0.95064713033 0.96505831214 0.6046121068 0.74237940212 0.91015664816 
0.64479289545 0.86851797067 0.90764999113 0.028847509769 0.21341294543 0.61157391952 0.20928885398 0.46462067018 0.30012981966 
0.6396728524 0.18306088055 0.066363415852 0.13938347847 0.72933463067 0.45107684006 0.56326260123 0.49694638726 0.4327941696 
0.62657885259 0.2990453415 0.14340073162 0.71874213517 0.34299868767 0.17351541377 0.56209126265 0.10112222785 0.97819151156 
0.30385543051 0.57148138451 0.11405800704 0.86815729115 0.74183175291 0.48309033777 0.51646696729 0.42351658062 0.38740792704 
0.76226283318 0.92743144213 0.54706353894 0.79586386505 0.92659476264 0.9030353541 0.021853670411 0.14562637152 0.30534320368 
0.027003817854 0.60467664165 0.87931420566 0.34716460747 0.32547664171 0.78549093255 0.26592644951 0.60898353976 0.55664373688 
0.47368952566 0.96541933796 0.22838311629 0.77433118206 0.46952103616 0.88040001253 0.18924751859 0.51004145783 0.30168009829 
0.94117654914 0.56610319434 0.23957512039 0.40223803042 0.32454488852 0.82164945994 0.63562991666 0.32050395577 0.571895216 
0.090350395691 0.44743288435 0.14012781353 0.55756003746 0.54144871573 0.5923410457 0.40994177787 0.91418034438 0.22517741907 
0.35289077365 0.36229529826 0.067307279218 0.37862605165 0.80700118408 0.47306101926 0.74625389456 0.54458849983 0.40191556907 
0.43216362783 0.90242228754 0.57757886617 0.60848736119 0.17441993936 0.54421395948 0.47237488342 0.66220590809 0.18000564086 
0.16952425101 0.29710789505 0.6589764274 0.8128893042 0.43057962767 0.82262102228 0.2866906682 0.93680410216 0.27253780038 
0.079001997459 0.85099969245 0.76867058604 0.088242524772 0.061514961175 0.17528037769 0.63231666776 0.79914930333 0.17567475372 
0.53317712861 0.74412339167 0.47727263136 0.74814847341 0.55520560509 0.65423313077 0.73981998058 0.86435262645 0.300424698 
0.58190294905 0.22256074955 0.89896007951 0.85988448536 0.29210651364 0.093808599867 0.041928849849 0.099859298693 0.25549978258 
0.80350502062 0.89383908888 0.37518534228 0.78480654857 0.98306983059 0.63103237766 0.10193595841 0.351071566 0.57947389906 
0.30340502479 0.54448727746 0.98453699398 0.20943094597 0.72355832906 0.28421829258 0.49145086125 0.39546524874 0.7531195183 
0.5002720954 0.78931227284 0.31590495761 0.92585090516 0.48948520264 0.48387195807 0.62212268342 0.0097789669502 0.47538503354 
0.82368231337 0.32094246131 0.59150679559 0.47409877518 0.7732278475 0.21775515719 0.28390225863 0.514018933 0.83996187705 
0.25923730648 0.41870799901 0.13160593114 0.84812026164 0.94063870097 0.31690068517 0.28572191818 0.88655899604 0.69510008868 