# vtk DataFile Version 4.0
vtk output
ASCII
DATASET UNSTRUCTURED_GRID
POINTS 50 float
0 0 0
0 0 1
0 1 0
0 1 1
0 2 0
0 2 1
0 3 0
0 3 1
0 4 0
0 4 1
0 0 0
0 0 1
0 1 0
0 1 1
0 2 0
0 2 1
0 3 0
0 3 1
0 4 0
0 4 1
0 0 0
0 0 1
0 1 0
0 1 1
0 2 0
0 2 1
0 3 0
0 3 1
0 4 0
0 4 1
1 0 0
1 0 1
1 1 0
1 1 1
1 2 0
1 2 1
1 3 0
1 3 1
1 4 0
1 4 1
2 0 0
2 0 1
2 1 0
2 1 1
2 2 0
2 2 1
2 3 0
2 3 1
2 4 0
2 4 1

CELLS 16 144
8 0 1 2 3 10 11 12 13
8 2 3 4 5 12 13 14 15
8 4 5 6 7 14 15 16 17
8 6 7 8 9 16 17 18 19
8 10 11 12 13 20 21 22 23
8 12 13 14 15 22 23 24 25
8 14 15 16 17 24 25 26 27
8 16 17 18 19 26 27 28 29
8 20 21 22 23 30 31 32 33
8 22 23 24 25 32 33 34 35
8 24 25 26 27 34 35 36 37
8 26 27 28 29 36 37 38 39
8 30 31 32 33 40 41 42 43
8 32 33 34 35 42 43 44 45
8 34 35 36 37 44 45 46 47
8 36 37 38 39 46 47 48 49

CELL_TYPES 16
9
9
9
9
9
9
9
9
9
9
9
9
9
9
9
9

POINT_DATA 50
SCALARS scalars float
LOOKUP_TABLE mytable
-1.0
-1.0
-1.0
-1.0
-1.0
-1.0
-1.0
-1.0
-1.0
-1.0
-1000.0
-1000.0
-1000.0
-1000.0
-1000.0
-1000.0
-1000.0
-1000.0
-1000.0
-1000.0
1.0
1.0
1.0
1.0
1.0
1.0
1.0
1.0
1.0
1.0
1.0
1.0
1.0
1.0
1.0
1.0
1.0
1.0
1.0
1.0
1.0
1.0
1.0
1.0
1.0
1.0
1.0
1.0
1.0
1.0
