# vtk DataFile Version 4.0
vtk output
ASCII
DATASET POLYDATA
POINTS 3960 float
0.0 0.0 1
0.1 0.0 1
0.2 0.0 1
0.3 0.0 1
0.4 0.0 1
0.5 0.0 1
0.6 0.0 1
0.7 0.0 1
0.8 0.0 1
0.9 0.0 1
1.0 0.0 1
0.0 0.0 1
0.0999847695156 0.00174524064373 1
0.199969539031 0.00349048128746 1
0.299954308547 0.00523572193119 1
0.399939078063 0.00698096257491 1
0.499923847578 0.00872620321864 1
0.599908617094 0.0104714438624 1
0.699893386609 0.0122166845061 1
0.799878156125 0.0139619251498 1
0.899862925641 0.0157071657936 1
0.999847695156 0.0174524064373 1
0.0 0.0 1
0.0999390827019 0.00348994967025 1
0.199878165404 0.0069798993405 1
0.299817248106 0.0104698490108 1
0.399756330808 0.013959798681 1
0.49969541351 0.0174497483513 1
0.599634496211 0.0209396980215 1
0.699573578913 0.0244296476918 1
0.799512661615 0.027919597362 1
0.899451744317 0.0314095470323 1
0.999390827019 0.0348994967025 1
0.0 0.0 1
0.0998629534755 0.00523359562429 1
0.199725906951 0.0104671912486 1
0.299588860426 0.0157007868729 1
0.399451813902 0.0209343824972 1
0.499314767377 0.0261679781215 1
0.599177720853 0.0314015737458 1
0.699040674328 0.0366351693701 1
0.798903627804 0.0418687649944 1
0.898766581279 0.0471023606186 1
0.998629534755 0.0523359562429 1
0.0 0.0 1
0.099756405026 0.00697564737441 1
0.199512810052 0.0139512947488 1
0.299269215078 0.0209269421232 1
0.399025620104 0.0279025894977 1
0.49878202513 0.0348782368721 1
0.598538430156 0.0418538842465 1
0.698294835182 0.0488295316209 1
0.798051240208 0.0558051789953 1
0.897807645234 0.0627808263697 1
0.99756405026 0.0697564737441 1
0.0 0.0 1
0.0996194698092 0.00871557427477 1
0.199238939618 0.0174311485495 1
0.298858409428 0.0261467228243 1
0.398477879237 0.0348622970991 1
0.498097349046 0.0435778713738 1
0.597716818855 0.0522934456486 1
0.697336288664 0.0610090199234 1
0.796955758473 0.0697245941981 1
0.896575228283 0.0784401684729 1
0.996194698092 0.0871557427477 1
0.0 0.0 1
0.0994521895368 0.0104528463268 1
0.198904379074 0.0209056926535 1
0.29835656861 0.0313585389803 1
0.397808758147 0.0418113853071 1
0.497260947684 0.0522642316338 1
0.596713137221 0.0627170779606 1
0.696165326758 0.0731699242874 1
0.795617516295 0.0836227706141 1
0.895069705831 0.0940756169409 1
0.994521895368 0.104528463268 1
0.0 0.0 1
0.0992546151641 0.0121869343405 1
0.198509230328 0.024373868681 1
0.297763845492 0.0365608030215 1
0.397018460657 0.0487477373621 1
0.496273075821 0.0609346717026 1
0.595527690985 0.0731216060431 1
0.694782306149 0.0853085403836 1
0.794036921313 0.0974954747241 1
0.893291536477 0.109682409065 1
0.992546151641 0.121869343405 1
0.0 0.0 1
0.0990268068742 0.013917310096 1
0.198053613748 0.027834620192 1
0.297080420622 0.041751930288 1
0.396107227497 0.055669240384 1
0.495134034371 0.06958655048 1
0.594160841245 0.083503860576 1
0.693187648119 0.097421170672 1
0.792214454993 0.111338480768 1
0.891241261867 0.125255790864 1
0.990268068742 0.13917310096 1
0.0 0.0 1
0.0987688340595 0.015643446504 1
0.197537668119 0.031286893008 1
0.296306502179 0.0469303395121 1
0.395075336238 0.0625737860161 1
0.493844170298 0.0782172325201 1
0.592613004357 0.0938606790241 1
0.691381838417 0.109504125528 1
0.790150672476 0.125147572032 1
0.888919506536 0.140791018536 1
0.987688340595 0.15643446504 1
0.0 0.0 1
0.0984807753012 0.0173648177667 1
0.196961550602 0.0347296355334 1
0.295442325904 0.0520944533001 1
0.393923101205 0.0694592710668 1
0.492403876506 0.0868240888335 1
0.590884651807 0.1041889066 1
0.689365427109 0.121553724367 1
0.78784620241 0.138918542134 1
0.886326977711 0.1562833599 1
0.984807753012 0.173648177667 1
0.0 0.0 1
0.0981627183448 0.0190808995377 1
0.19632543669 0.0381617990753 1
0.294488155034 0.057242698613 1
0.392650873379 0.0763235981506 1
0.490813591724 0.0954044976883 1
0.588976310069 0.114485397226 1
0.687139028413 0.133566296764 1
0.785301746758 0.152647196301 1
0.883464465103 0.171728095839 1
0.981627183448 0.190808995377 1
0.0 0.0 1
0.0978147600734 0.0207911690818 1
0.195629520147 0.0415823381636 1
0.29344428022 0.0623735072453 1
0.391259040294 0.0831646763271 1
0.489073800367 0.103955845409 1
0.58688856044 0.124747014491 1
0.684703320514 0.145538183572 1
0.782518080587 0.166329352654 1
0.88033284066 0.187120521736 1
0.978147600734 0.207911690818 1
0.0 0.0 1
0.0974370064785 0.0224951054344 1
0.194874012957 0.0449902108688 1
0.292311019436 0.0674853163032 1
0.389748025914 0.0899804217375 1
0.487185032393 0.112475527172 1
0.584622038871 0.134970632606 1
0.68205904535 0.157465738041 1
0.779496051828 0.179960843475 1
0.876933058307 0.202455948909 1
0.974370064785 0.224951054344 1
0.0 0.0 1
0.0970295726276 0.02419218956 1
0.194059145255 0.0483843791199 1
0.291088717883 0.0725765686799 1
0.38811829051 0.0967687582399 1
0.485147863138 0.1209609478 1
0.582177435766 0.14515313736 1
0.679207008393 0.16934532692 1
0.776236581021 0.19353751648 1
0.873266153648 0.21772970604 1
0.970295726276 0.2419218956 1
0.0 0.0 1
0.0965925826289 0.0258819045103 1
0.193185165258 0.0517638090205 1
0.289777747887 0.0776457135308 1
0.386370330516 0.103527618041 1
0.482962913145 0.129409522551 1
0.579555495773 0.155291427062 1
0.676148078402 0.181173331572 1
0.772740661031 0.207055236082 1
0.86933324366 0.232937140592 1
0.965925826289 0.258819045103 1
0.0 0.0 1
0.0961261695938 0.0275637355817 1
0.192252339188 0.0551274711634 1
0.288378508781 0.0826912067451 1
0.384504678375 0.110254942327 1
0.480630847969 0.137818677908 1
0.576757017563 0.16538241349 1
0.672883187157 0.192946149072 1
0.769009356751 0.220509884654 1
0.865135526344 0.248073620235 1
0.961261695938 0.275637355817 1
0.0 0.0 1
0.0956304755963 0.0292371704723 1
0.191260951193 0.0584743409445 1
0.286891426789 0.0877115114168 1
0.382521902385 0.116948681889 1
0.478152377982 0.146185852361 1
0.573782853578 0.175423022834 1
0.669413329174 0.204660193306 1
0.76504380477 0.233897363778 1
0.860674280367 0.26313453425 1
0.956304755963 0.292371704723 1
0.0 0.0 1
0.0951056516295 0.0309016994375 1
0.190211303259 0.061803398875 1
0.285316954889 0.0927050983125 1
0.380422606518 0.12360679775 1
0.475528258148 0.154508497187 1
0.570633909777 0.185410196625 1
0.665739561407 0.216311896062 1
0.760845213036 0.2472135955 1
0.855950864666 0.278115294937 1
0.951056516295 0.309016994375 1
0.0 0.0 1
0.0945518575599 0.0325568154457 1
0.18910371512 0.0651136308914 1
0.28365557268 0.0976704463371 1
0.37820743024 0.130227261783 1
0.4727592878 0.162784077229 1
0.56731114536 0.195340892674 1
0.66186300292 0.22789770812 1
0.756414860479 0.260454523566 1
0.850966718039 0.293011339011 1
0.945518575599 0.325568154457 1
0.0 0.0 1
0.0939692620786 0.0342020143326 1
0.187938524157 0.0684040286651 1
0.281907786236 0.102606042998 1
0.375877048314 0.13680805733 1
0.469846310393 0.171010071663 1
0.563815572472 0.205212085995 1
0.65778483455 0.239414100328 1
0.751754096629 0.273616114661 1
0.845723358707 0.307818128993 1
0.939692620786 0.342020143326 1
0.0 0.0 1
0.0933580426497 0.0358367949545 1
0.186716085299 0.0716735899091 1
0.280074127949 0.107510384864 1
0.373432170599 0.143347179818 1
0.466790213249 0.179183974773 1
0.560148255898 0.215020769727 1
0.653506298548 0.250857564682 1
0.746864341198 0.286694359636 1
0.840222383847 0.322531154591 1
0.933580426497 0.358367949545 1
0.0 0.0 1
0.0927183854567 0.0374606593416 1
0.185436770913 0.0749213186832 1
0.27815515637 0.112381978025 1
0.370873541827 0.149842637366 1
0.463591927283 0.187303296708 1
0.55631031274 0.22476395605 1
0.649028698197 0.262224615391 1
0.741747083653 0.299685274733 1
0.83446546911 0.337145934074 1
0.927183854567 0.374606593416 1
0.0 0.0 1
0.0920504853452 0.0390731128489 1
0.18410097069 0.0781462256979 1
0.276151456036 0.117219338547 1
0.368201941381 0.156292451396 1
0.460252426726 0.195365564245 1
0.552302912071 0.234438677094 1
0.644353397417 0.273511789942 1
0.736403882762 0.312584902791 1
0.828454368107 0.35165801564 1
0.920504853452 0.390731128489 1
0.0 0.0 1
0.0913545457643 0.0406736643076 1
0.182709091529 0.0813473286152 1
0.274063637293 0.122020992923 1
0.365418183057 0.16269465723 1
0.456772728821 0.203368321538 1
0.548127274586 0.244041985845 1
0.63948182035 0.284715650153 1
0.730836366114 0.325389314461 1
0.822190911878 0.366062978768 1
0.913545457643 0.406736643076 1
0.0 0.0 1
0.0906307787037 0.0422618261741 1
0.181261557407 0.0845236523481 1
0.271892336111 0.126785478522 1
0.362523114815 0.169047304696 1
0.453153893518 0.21130913087 1
0.543784672222 0.253570957044 1
0.634415450926 0.295832783218 1
0.725046229629 0.338094609393 1
0.815677008333 0.380356435567 1
0.906307787037 0.422618261741 1
0.0 0.0 1
0.0898794046299 0.0438371146789 1
0.17975880926 0.0876742293578 1
0.26963821389 0.131511344037 1
0.35951761852 0.175348458716 1
0.44939702315 0.219185573395 1
0.53927642778 0.263022688073 1
0.629155832409 0.306859802752 1
0.719035237039 0.350696917431 1
0.808914641669 0.39453403211 1
0.898794046299 0.438371146789 1
0.0 0.0 1
0.0891006524188 0.045399049974 1
0.178201304838 0.0907980999479 1
0.267301957257 0.136197149922 1
0.356402609675 0.181596199896 1
0.445503262094 0.22699524987 1
0.534603914513 0.272394299844 1
0.623704566932 0.317793349818 1
0.712805219351 0.363192399792 1
0.80190587177 0.408591449766 1
0.891006524188 0.45399049974 1
0.0 0.0 1
0.0882947592859 0.0469471562786 1
0.176589518572 0.0938943125572 1
0.264884277858 0.140841468836 1
0.353179037144 0.187788625114 1
0.441473796429 0.234735781393 1
0.529768555715 0.281682937672 1
0.618063315001 0.32863009395 1
0.706358074287 0.375577250229 1
0.794652833573 0.422524406507 1
0.882947592859 0.469471562786 1
0.0 0.0 1
0.0874619707139 0.0484809620246 1
0.174923941428 0.0969619240493 1
0.262385912142 0.145442886074 1
0.349847882856 0.193923848099 1
0.43730985357 0.242404810123 1
0.524771824284 0.290885772148 1
0.612233794998 0.339366734172 1
0.699695765712 0.387847696197 1
0.787157736425 0.436328658222 1
0.874619707139 0.484809620246 1
0.0 0.0 1
0.0866025403784 0.05 1
0.173205080757 0.1 1
0.259807621135 0.15 1
0.346410161514 0.2 1
0.433012701892 0.25 1
0.519615242271 0.3 1
[...]
POINT_DATA 3960
SCALARS scalars float
LOOKUP_TABLE default
0.869446580026
0.322304419314
0.366076738938
0.078250482481
0.461998991149
0.769382506601
0.328504568779
0.87539273087
0.847849925883
0.686272995483
0.771650585093
0.531488002566
0.322468171958
0.854381351876
0.438778367024
0.281932785983
0.672289440283
0.58626656053
0.502063557532
0.494567235613
0.867013400171
0.186214096175
0.417339133795
0.828387615426
0.137780792899
0.745331045549
0.397383730806
0.779643269161
0.318050292945
0.342910997104
0.912973020884
0.568571304196
0.490695842097
0.29214489426
0.268170721729
0.500631345201
0.606009871033
0.517834693151
0.712149661841
0.25973540367
0.545256079107
0.444376073223
0.667953228941
0.675383590667
0.691762047929
0.692389683977
0.538859983766
0.297324587209
0.30879404801
0.414778379167
0.443007408496
0.83400319165
0.0795294523353
0.788427579534
0.516558314106
0.523650595107
0.872817750867
0.469860505229
0.0661120509972
0.968717513906
0.657746659802
0.151923299304
0.0442454936283
0.76108716084
0.39748580348
0.518229835987
0.985482409615
0.142604065678
0.661592663047
0.472677135264
0.472144557453
0.863699435815
0.579753749961
0.186245731158
0.529064141777
0.856653503329
0.729143678577
0.865114944469
0.978114299256
0.256556665722
0.460272714314
0.120098909935
0.731595337145
0.0644780744332
0.986919548031
0.189239369434
0.985831999907
0.656914839743
0.228983845743
0.520672329868
0.767629393597
0.986561505013
0.0932407039756
0.0313216971382
0.763887951378
0.666842699587
0.214632493555
0.597032263963
0.711993259411
0.644172796118
0.940741369521
0.933065436334
0.717348437183
0.0536469821577
0.253005763588
0.795847776085
0.538058698029
0.141943801979
0.162462859451
0.460158030257
0.0964981699656
0.231531893462
0.679689589246
0.965008588434
0.617614568517
0.973421807419
0.0722695929023
0.171673895064
0.786368870303
0.735454738655
0.901818050819
0.8010799804
0.725337839408
0.0594398223503
0.495598550063
0.908625562532
0.252366253445
0.570835973166
0.5396472122
0.181879663577
0.42735328864
0.743412621437
0.109062943245
0.875852330455
0.612948404256
0.651714744851
0.405901191257
0.30596525796
0.756597671599
0.864445702784
0.887783752955
0.657051685696
0.847598802937
0.0551839040391
0.977898177938
0.459143853233
0.607347664881
0.15713216993
0.33486882657
0.00446930963046
0.0099834158587
0.263254201271
0.434246296068
0.419537908051
0.295886746644
0.767920652461
0.919340479341
0.0740831814824
0.564472016888
0.221704970682
0.87015069151
0.51395957474
0.819556490984
0.785532068586
0.0998314480901
0.276163754992
0.256505250067
0.625946000626
0.622436285773
0.889278296101
0.494166091726
0.53450512831
0.471915899606
0.200338222481
0.585238350051
0.899824062401
0.977441907579
0.902046617012
0.216061544173
0.469413995658
0.494268498668
0.169214770519
0.0228357039834
0.407821115304
0.639721150341
0.386065465702
0.605095634125
0.0135536639772
0.703189281124
0.465703000491
0.855574432704
0.28042768887
0.43994570537
0.631128925669
0.2936582445
0.615799628753
0.389168188747
0.838089863047
0.112669220543
0.453352256209
0.128075197925
0.230938862822
0.534982175361
0.514491465784
0.642348601042
0.54487918149
0.637083452674
0.955228050359
0.664703446119
0.908523387857
0.423707593613
0.704472794746
0.111186355223
0.755994996493
0.577399823127
0.250535135064
0.0030554071239
0.203201013686
0.663246080071
0.587161173711
0.975884630214
0.13678843383
0.810267638468
0.23424162578
0.174834870717
0.608719893823
0.506909384445
0.68102533264
0.876456836484
0.577847269483
0.848975112413
0.923689361227
0.642531224015
0.741158145018
0.167173432198
0.290366233532
0.227090954803
0.993992010284
0.176389025562
0.216773452766
0.482540125803
0.50143269578
0.450836629554
0.816272138945
0.584138172037
0.0729707447668
0.212840339656
0.268280405056
0.971456608441
0.564762481262
0.363290845439
0.136494300377
0.944970135024
0.671806214223
0.68223267078
0.284270222815
0.862076165281
0.0277253912372
0.648727546745
0.705347791934
0.902737497206
0.29803505012
0.707900512157
0.652632866444
0.10613086149
0.546429476998
0.884141004156
0.705876204216
0.301458509275
0.370630386457
0.594791407568
0.436017071491
0.594434905029
0.356620075664
0.543257853897
0.818013337973
0.293161951302
0.736977512785
0.0895391045908
0.271302529497
0.29711460891
0.375578164453
0.437793995051
0.371312129211
0.897039833121
0.605569977365
0.222503458408
0.312475779647
0.0466511272598
0.823593539517
0.0483296538413
0.17371342969
0.0971421101231
0.281637815875
0.487670873876
0.196908557683
0.119611529389
0.28167990008
0.0981277871223
0.364505453084
0.468392194766
0.96769844925
0.0929267315372
0.707605417322
0.041527933941
0.188490965655
0.662211262384
0.186186908556
0.253810883181
0.611953515254
0.943866707939
0.0260077801921
0.58765970308
0.288811985409
0.454299835466
0.766342682479
0.582293290457
0.237404581554
0.452299517367
0.289365992598
0.435679181385
0.645142841254
0.182762222158
0.708723779893
0.692523606088
0.822582084436
0.463723896477
0.0862088594983
0.339650741619
0.898638672173
0.235108088391
0.566881560371
0.627575854154
0.975068478898
0.876839990471
0.586024236534
0.572972391109
0.839566869788
0.456748571014
0.74073473021
0.854147000898
0.381761851736
0.453434776769
0.114155994847
0.0283696313507
0.998747028086
0.994007717285
0.737570746082
0.917339308134
0.528993776181
0.142342954899
0.187139982385
0.438309430652
0.349079891685
0.0851937325593
0.764911583259
0.39444715406
0.319119142292
0.903462596785
0.781175986554
0.56522237662
0.217702950184
0.277774830251
0.596052996647
0.0432253028773
0.271667868841
0.460248329957
0.077508199783
0.52430149486
0.338110074653
0.984255076649
0.694424970557
0.545913498066
0.845275153368
0.148359642067
0.7067033989
0.390467556064
0.243081266458
0.498636451225
0.401792959855
0.791743327643
0.242476914794
0.406873113987
0.0265993058999
0.960027840381
0.722375557666
0.756846886837
0.657011427693
0.757055109625
0.598702945364
0.594279108983
0.257421239204
0.232853437036
0.991347053266
0.369237893818
0.0950770227322
0.915329622359
0.0222599483467
0.136763857595
0.522374895095
0.098743979503
0.0153404181322
0.224886316974
0.682572107608
0.663234215375
0.693352039981
0.783706860165
0.566733794117
0.927477202962
0.538001856168
0.326113301396
0.12148206491
0.541519987762
0.408467081277
0.252312649654
0.0841224607157
0.994664613534
0.606803453399
0.995466801906
0.742505317787
0.699581840033
0.832337443509
0.185155008584
0.482570869408
0.956947467627
0.145370029698
0.568643961301
0.813629732769
0.180193440575
0.314565902828
0.903465720412
0.429978542713
0.686350375847
0.511887588039
0.781284063491
0.857167850826
0.0698043995885
0.684298478504
0.65764348496
0.592021534161
0.494331650162
0.898043764123
0.197573553561
0.043163677194
0.826751964533
0.846968200813
0.0296735591949
0.0921729315893
0.297032199833
0.0829974210225
0.754650729361
0.0492615910745
0.279128246833
0.98614212013
0.959190375323
0.4445214542
0.269056898508
0.0547227272236
0.391792292214
0.479989951069
0.796730506935
0.845000786024
0.175547323733
0.427326207938
0.270917736125
0.95408307945
0.538246079382
0.747555440287
0.469832159437
0.212378000419
0.98563103633
0.981917008112
0.0508283329711
0.94776430353
0.0744616035615
0.733194755187
0.484706499665
0.161411620355
0.687708525544
0.078840425214
0.184756198746
0.247664105669
0.284561893875
0.48791300458
0.56667352461
0.878238471012
0.627974240339
0.693505718903
0.0614476517075
0.338000967024
0.674875043149
0.250494824737
0.529690849981
0.109008770277
0.192018124376
0.26540805718
0.193786922471
0.824768985126
0.263119894693
0.0790315907614
0.0583168119045
0.160695070264
0.239318678677
0.548710132335
0.621597620252
0.956652801734
0.605354830668
0.0960032537087
0.253444936834
0.567049714197
0.0191148533477
0.951640853268
0.13740197531
0.66105388707
0.6077518823
0.508136305334
0.615940522879
0.512027488312
0.415630002677
0.00198134662839
0.793534430425
0.205947849372
0.424394927905
0.107373331112
0.69798007565
0.873369570301
0.899489003722
0.911887457557
0.0167111522521
0.800445561847
0.599857790043
0.172169395063
0.543840045736
0.857440820719
0.646504494445
0.926902576514
0.901982777464
0.744721599206
0.889548556458
0.128875585777
0.601795138592
0.864124228507
0.0667690932286
0.642127499351
0.767860225311
0.708429472577
0.644533957269
0.707694743076
0.334873285481
0.314347355707
0.274501473793
0.0679634513434
0.371041113537
0.582443727033
0.78804168764
0.340588636096
0.127158083731
0.594280588785
0.779567894949
0.331915058248
0.320903103872
0.677713421022
0.251984839216
0.989774310318
0.528945246868
0.119620068729
0.222950545774
0.670729787659
0.330905987532
0.0637959905528
0.53221363179
0.422873892259
0.98924788387
0.717918335806
0.0154569358488
0.728693931075
0.552044146405
0.437820679798
0.96902223601
0.174637490466
0.0615808607907
0.426615229605
0.22842891531
0.506345858779
0.3278670198
0.276204770841
0.80313155676
0.783836999452
0.178656981674
0.642637009191
0.3132420225
0.0312501098744
0.558479324136
0.631860571354
0.868181722455
0.271442944906
0.684161699157
0.91179439172
0.0895009616061
0.0906028952687
0.765940561905
0.611229570308
0.675886760562
0.792256547865
0.612214122372
0.917801898722
0.757738083063
0.702978915299
0.632297335376
0.000272946830392
0.450878537388
0.905254206051
0.814461563902
0.823594299437
0.237651785862
0.894691730269
0.96620458046
0.0231591990025
0.997268052752
0.254565609828
0.293139199302
0.889550436407
0.914081737473
0.137248471012
0.541661805039
0.617447529072
0.979241896838
0.712532824211
0.0118300510706
0.79621484017
0.201050005224
0.117395480223
0.523508507131
0.25565084383
0.84351448736
0.62271070904
0.0447303508156
0.628024676773
0.327795020385
0.739598630016
0.812462821336
0.889151953862
0.499590040953
0.263939884261
0.783280963894
0.18674747007
0.233297360867
0.0595246001111
0.758968771014
0.28261827752
0.449054013949
0.780264587236
0.339633309915
0.433866779962
0.554149015388
0.965371507143
0.795170138396
0.884940516357
0.816108234062
0.925567063279
0.432892013204
0.475963608313
0.631664376396
0.336868619734
0.814140894377
0.906016994675
0.76735461202
0.272653069036
0.955062586717
0.478664632795
0.136021881311
0.113580757029
0.0218003036293
0.191433665724
0.145460408646
0.244675701035
0.89155552246
0.303919142922
0.433385020944
0.958414309304
0.921503435199
0.637244219773
0.202462837316
0.367281070202
0.773948256056
0.584067575178
0.291621006187
0.367749079311
0.792729278791
0.562849159763
0.984308025469
0.290417874782
0.184916329296
0.525576676582
0.615200147285
0.446193725687
0.700750489936
0.579196574956
0.455287286521
0.411408910787
0.104794543413
0.441876005154
0.113089669482
0.758240272758
0.268229267907
0.236526146705
0.509505902043
0.977793741905
0.0618147215487
0.073617725809
0.360286197878
0.869478815928
0.0538008417526
0.311429952577
0.118671001959
0.713505551791
0.337484098044
0.417972422296
0.940370530542
0.933530111878
0.925403755105
0.374085121797
0.700769283228
0.226522385489
0.456855643975
0.992533145825
0.957381763617
0.425437429481
0.540109119596
0.358115480785
0.350192873139
0.489604509093
0.761017636146
0.114738063215
0.205896238974
0.719374547489
0.904290989363
0.135927104359
0.535006636203
0.553045804455
0.632629284446
0.1318591397
0.0583523593166
0.801692124851
0.561573634623
0.363705716622
0.188023733171
0.873388846271
0.901382089813
0.644487028516
0.0713589039477
0.626607170491
0.713649906506
0.393487238801
0.569181938773
0.808860648848
0.874019510296
0.0840707528615
0.776295190219
0.315714603355
0.747144026982
0.191565315959
0.514423249431
0.910276856053
0.524515976997
0.545646019041
0.308286556724
0.354903897656
0.134530499156
0.241940348863
0.719358421954
0.956796544128
0.0746482654229
0.858183748397
0.235286173629
0.999302331138
0.254527180913
0.702870344335
0.584021743892
0.442840535241
0.62278449098
0.315929174332
0.079683925398
0.588073805243
0.643999105269
0.432349838203
0.227257809162
0.662058504312
0.0636928850432
0.133412419144
0.925070188002
0.138869318777
0.208386809373
0.430334654368
0.956725518986
0.358882911371
0.232238722357
0.402997857001
0.984213513656
0.275197868014
0.711331445129
0.37947248171
0.820423568348
0.419657158477
0.381529499626
0.352825615895
0.739412016822
0.646024616906
0.24487144015
0.780312254182
0.669067102712
0.810244370668
0.777578496396
0.0541924199304
0.856933675209
0.998609233055
0.790235628586
0.552743346276
0.995653961479
0.962728501006
0.0699270159516
0.730183750802
0.544853837916
0.256453504147
0.21389833389
0.137816562954
0.280104019058
0.325217999428
0.894135520422
0.340414411361
0.33884932222
0.816379900436
0.612864060369
0.900438041388
0.999354720162
0.258182401456
0.617767191156
0.763350042604
0.20012760979
0.223064166707
0.292756273907
0.277194320304
0.682385110347
0.463127083826
0.145018379808
0.737812358361
0.154776639599
0.850935557664
0.386134944893
0.847690447613
0.232510727364
0.355246134496
0.247924928109
0.814873327488
0.14836190331
0.305311480475
0.908314322092
0.417448051973
0.394919406207
0.580532595812
0.755083631447
0.957731997625
0.682605668733
0.869733834641
0.343467192309
0.537120507246
0.956704177085
0.0791114572721
0.400337253467
0.0443386546542
0.161739444494
0.0836788685636
0.990890660834
0.628130628604
0.0554012452662
0.213372240415
0.67206763274
0.214879102463
0.565850889095
0.472860787469
0.403506351592
0.60272184773
0.550947815565
0.868849338081
0.202733239605
0.135244961457
0.52521139734
0.732847307847
0.957230385408
0.826321970912
0.992597688829
0.978454872745
0.752275430731
0.69757848606
0.909684544138
0.664567816668
0.327424977425
0.267943187384
0.502446959965
0.144845910425
0.110990844737
0.924542757253
0.353177922698
0.942189892323
0.764883769293
0.210408266345
0.991376975396
0.867182947462
0.279441496332
0.372877449122
0.0727038199742
0.157636381926
0.119462889619
0.900288156063
0.0898834503715
0.663918197955
0.772738480761
0.0306206160562
0.024278880913
0.159611611979
0.494874539322
0.648473800826
0.838706507373
0.819256864411
0.0158807860789
0.695324452139
0.961281344991
0.250723023479
0.901590175572
0.258287398242
0.202207462246
0.99839290617
0.0692297493987
0.696689027933
0.429538993978
0.442908084872
0.028636361399
0.784689925174
0.782069010315
0.231078229134
0.272804150624
0.563528568461
0.530302408701
0.0867448471759
0.516160813577
0.619483726394
0.928720994508
0.909044257944
0.0392176902461
0.702101921017
0.746079282871
0.118735694962
0.545164570576
0.86059880207
0.671609713141
0.37201309381
0.0888852862726
0.487114963963
0.230923011065
0.386176651212
0.305146864803
0.180466974758
0.440123681905
0.506210842448
0.726226198264
0.0712394898159
0.856281223972
0.874263313556
0.432838035676
0.761566359504
0.705917282531
0.834677772071
0.99945393517
0.855141965405
0.214275633005
0.479538709495
0.670463607485
0.523523661375
0.957211226395
0.0646925011304
0.232978229067
0.340523535892
0.780882613706
0.686342546658
0.0253743609411
0.343535695639
0.0343099224535
0.348252603737
0.284129129688
0.653957863048
0.28324732158
0.220622493548
0.816214702174
0.775026515653
0.734545722357
0.838211646906
0.669044583551
0.461064650728
0.969031690414
0.873522569993
0.0338926996859
0.806688749986
0.766082193452
0.588621503257
0.0461314574084
0.128379513085
0.933109349583
0.561874673881
0.228688572855
0.0641867266142
0.513075700623
0.13506403971
0.61585878494
0.248709069433
0.024910322899
0.108599762281
0.116247841128
0.708125088452
0.27396527366
0.773054515636
0.368787675372
0.0907043950854
0.115006685356
0.732202095746
0.829306826663
0.389440496599
0.519240433771
0.179620020286
0.642540877612
0.894735166778
0.847265124196
0.298854015395
0.75447805009
0.109054444831
0.558960423554
0.763620262898
0.679737558683
0.98304163044
0.0150241022438
0.0169305982399
0.77204760868
0.705801165744
0.506457635155
0.74452695207
0.604141449568
0.258992892629
0.0950611827568
0.661196939163
0.916273868882
0.391774407278
0.119922206497
0.993391403402
0.844705545442
0.347077885083
0.120337340227
0.635692046595
0.46506709356
0.434144423725
0.113813525313
0.985516660415
0.852265967196
0.697603261559
0.689356868605
0.953804188532
0.468160491664
0.368153421883
0.778331053788
0.734767366264
0.624194574812
0.590360772774
0.486257055389
0.0863184819038
0.53524067254
0.144986034716
0.65501232562
0.970338892763
0.844604597113
0.96410890428
0.392443131227
0.956611776085
0.246137682547
0.0300033549068
0.857886206104
0.881193498836
0.795718785716
0.00151832909802
0.197467182283
0.441909413615
0.336772522014
0.360348574595
0.220541922886
0.586291141547
0.181550052853
0.385188622519
0.00280134535574
0.786689226539
0.984064075156
0.443209941571
0.399185778839
0.346935419741
0.741744858598
0.175668896498
0.744244585724
0.497329392913
0.86202731763
0.240332861383
0.84546583664
0.442941467561
0.312455758054
0.385489408857
0.863541691426
0.338414202454
0.16426291967
0.460148384856
0.910999245173
0.952776582959
0.213903407586
0.0818030518712
0.663873925846
0.291895290668
0.0199077385475
0.733958316077
0.135615549875
0.652307080073
0.717519461074
0.0347983864605
0.859384616642
0.232063112457
0.306456593193
0.676839785996
0.744166649792
0.124961362732
0.537203184686
0.873654086505
0.954480155449
0.522406933378
0.893991606289
0.96765456801
0.816981590863
0.33604586622
0.83436589588
0.725334184986
0.638404087879
0.320755383381
0.622330935273
0.701672766839
0.146581771607
0.0232157098192
0.366509385893
0.752975883537
0.282545549101
0.185162538658
0.30418745359
0.602699971209
0.783844633234
0.0861463432577
0.317197461815
0.722182221958
0.456829523048
0.438202880029
0.123323412414
0.0629200762032
0.565811084889
0.489898103593
0.869653818033
0.954712340731
0.799245339032
0.147361442576
0.923528423127
0.293164681375
0.213488485675
0.974857469855
0.83066501521
0.53971613074
0.015318440589
0.100652564264
0.505289948356
0.653453995631
0.188389773158
0.752078702516
0.965978279512
0.217606094154
0.0380713514134
0.301607061435
0.136222118916
0.144265446656
0.234317941963
0.0293066528432
0.979480349067
0.406744294977
0.0861714451933
0.747588855607
0.969852447713
0.312314658849
0.690069267375
0.695500214099
0.028425622819
0.925496769412
0.387138166647
0.431025255877
0.12600594462
0.166373847383
0.75539728607
0.552919603969
0.850167385845
0.908210813869
0.682471262983
0.405162402009
0.651503546394
0.169225299708
0.689683384695
0.386278777032
0.201187779341
0.647317448311
0.525823655879
0.237598471419
0.303437417919
0.453510034737
0.131579534358
0.690507891919
0.128198283608
0.631596806055
0.904699418628
0.780539704029
0.837891895465
0.718629321844
0.665980092607
0.871101707381
0.835668901911
0.255280701182
0.260674847692
0.710494030071
0.773814835559
0.831229539971
0.524180643734
0.162211029034
0.0235295250255
0.384950714812
0.00245661638908
0.248855871038
0.439327855452
0.983589515048
0.555272959042
0.483961347913
0.37676473731
0.862444759286
0.621292801871
0.328527140334
0.740257828803
0.00811579955536
0.0992173757878
0.462949623807
0.679252848316
0.979529245399
0.587536648016
0.114956009031
0.441488551252
0.657783441351
0.919138695617
0.447439178521
0.202360770869
0.947808368099
0.331782348486
0.182167833471
0.027086643202
0.239658696518
0.879642936398
0.104829208148
0.39969471589
0.414611949505
0.572961445546
0.829948038035
0.339529521545
0.44962299804
0.421521075031
0.577208900932
0.152735335983
0.726954893784
0.166467800621
0.750081802511
0.361336414804
0.663251685493
0.430552270642
0.764969495708
0.0225323851041
0.829746032795
0.666093562617
0.919958344501
0.809975341898
0.620177904341
0.302727986867
0.304954006584
0.805863102662
0.225822768215
0.170363403903
0.911798303331
0.826451903155
0.733438267065
0.873826001879
0.062561690304
0.977207997187
0.505217982944
0.0762083888621
0.764960999032
0.557621020298
0.651034110956
0.515298078547
0.364301989139
0.380967101436
0.714589372937
0.593984200458
0.31097453298
0.415965276479
0.956892024645
0.38135648912
0.792296175348
0.765776444649
0.217975640368
0.779461012556
0.976232547501
0.380294031697
0.110754076597
0.00900333932801
0.200955873241
0.834148275468
0.178742043049
0.813089604688
0.760552961631
0.909843032674