# vtk DataFile Version 4.0
vtk output
ASCII
DATASET UNSTRUCTURED_GRID
POINTS 200 float
0.0 0.0 6
0.0 0.0 7
0.0 0.25 6
0.0 0.25 7
0.0 0.5 6
0.0 0.5 7
0.0 0.75 6
0.0 0.75 7
0.0 1.0 6
0.0 1.0 7
0.0 1.25 6
0.0 1.25 7
0.0 1.5 6
0.0 1.5 7
0.0 1.75 6
0.0 1.75 7
0.0 2.0 6
0.0 2.0 7
0.0 2.25 6
0.0 2.25 7
0.0 2.5 6
0.0 2.5 7
0.0 2.75 6
0.0 2.75 7
0.0 3.0 6
0.0 3.0 7
0.0 3.25 6
0.0 3.25 7
0.0 3.5 6
0.0 3.5 7
0.0 3.75 6
0.0 3.75 7
0.0 4.0 6
0.0 4.0 7
0.0 4.25 6
0.0 4.25 7
0.0 4.5 6
0.0 4.5 7
0.0 4.75 6
0.0 4.75 7
1.0 0.0 6
1.0 0.0 7
1.0 0.25 6
1.0 0.25 7
1.0 0.5 6
1.0 0.5 7
1.0 0.75 6
1.0 0.75 7
1.0 1.0 6
1.0 1.0 7
1.0 1.25 6
1.0 1.25 7
1.0 1.5 6
1.0 1.5 7
1.0 1.75 6
1.0 1.75 7
1.0 2.0 6
1.0 2.0 7
1.0 2.25 6
1.0 2.25 7
1.0 2.5 6
1.0 2.5 7
1.0 2.75 6
1.0 2.75 7
1.0 3.0 6
1.0 3.0 7
1.0 3.25 6
1.0 3.25 7
1.0 3.5 6
1.0 3.5 7
1.0 3.75 6
1.0 3.75 7
1.0 4.0 6
1.0 4.0 7
1.0 4.25 6
1.0 4.25 7
1.0 4.5 6
1.0 4.5 7
1.0 4.75 6
1.0 4.75 7
1.0 0.0 6
1.0 0.0 7
1.0 0.25 6
1.0 0.25 7
1.0 0.5 6
1.0 0.5 7
1.0 0.75 6
1.0 0.75 7
1.0 1.0 6
1.0 1.0 7
1.0 1.25 6
1.0 1.25 7
1.0 1.5 6
1.0 1.5 7
1.0 1.75 6
1.0 1.75 7
1.0 2.0 6
1.0 2.0 7
1.0 2.25 6
1.0 2.25 7
1.0 2.5 6
1.0 2.5 7
1.0 2.75 6
1.0 2.75 7
1.0 3.0 6
1.0 3.0 7
1.0 3.25 6
1.0 3.25 7
1.0 3.5 6
1.0 3.5 7
1.0 3.75 6
1.0 3.75 7
1.0 4.0 6
1.0 4.0 7
1.0 4.25 6
1.0 4.25 7
1.0 4.5 6
1.0 4.5 7
1.0 4.75 6
1.0 4.75 7
2.0 0.0 6
2.0 0.0 7
2.0 0.25 6
2.0 0.25 7
2.0 0.5 6
2.0 0.5 7
2.0 0.75 6
2.0 0.75 7
2.0 1.0 6
2.0 1.0 7
2.0 1.25 6
2.0 1.25 7
2.0 1.5 6
2.0 1.5 7
2.0 1.75 6
2.0 1.75 7
2.0 2.0 6
2.0 2.0 7
2.0 2.25 6
2.0 2.25 7
2.0 2.5 6
2.0 2.5 7
2.0 2.75 6
2.0 2.75 7
2.0 3.0 6
2.0 3.0 7
2.0 3.25 6
2.0 3.25 7
2.0 3.5 6
2.0 3.5 7
2.0 3.75 6
2.0 3.75 7
2.0 4.0 6
2.0 4.0 7
2.0 4.25 6
2.0 4.25 7
2.0 4.5 6
2.0 4.5 7
2.0 4.75 6
2.0 4.75 7
3.0 0.0 6
3.0 0.0 7
3.0 0.25 6
3.0 0.25 7
3.0 0.5 6
3.0 0.5 7
3.0 0.75 6
3.0 0.75 7
3.0 1.0 6
3.0 1.0 7
3.0 1.25 6
3.0 1.25 7
3.0 1.5 6
3.0 1.5 7
3.0 1.75 6
3.0 1.75 7
3.0 2.0 6
3.0 2.0 7
3.0 2.25 6
3.0 2.25 7
3.0 2.5 6
3.0 2.5 7
3.0 2.75 6
3.0 2.75 7
3.0 3.0 6
3.0 3.0 7
3.0 3.25 6
3.0 3.25 7
3.0 3.5 6
3.0 3.5 7
3.0 3.75 6
3.0 3.75 7
3.0 4.0 6
3.0 4.0 7
3.0 4.25 6
3.0 4.25 7
3.0 4.5 6
3.0 4.5 7
3.0 4.75 6
3.0 4.75 7
CELL_TYPES 0

POINT_DATA 200
SCALARS scalars float
LOOKUP_TABLE default
1.0
1.0
1.0
1.0
1.0
1.0
1.0
1.0
1.0
1.0
1.0
1.0
1.0
1.0
1.0
1.0
1.0
1.0
1.0
1.0
1.0
1.0
1.0
1.0
1.0
1.0
1.0
1.0
1.0
1.0
1.0
1.0
1.0
1.0
1.0
1.0
1.0
1.0
1.0
1.0
-1.0
-1.0
-1.0
-1.0
-1.0
-1.0
-1.0
-1.0
-1.0
-1.0
-1.0
-1.0
-1.0
-1.0
-1.0
-1.0
-1.0
-1.0
-1.0
-1.0
-1.0
-1.0
-1.0
-1.0
-1.0
-1.0
-1.0
-1.0
-1.0
-1.0
-1.0
-1.0
-1.0
-1.0
-1.0
-1.0
-1.0
-1.0
-1.0
-1.0
1.0
1.0
1.0
1.0
1.0
1.0
1.0
1.0
1.0
1.0
1.0
1.0
1.0
1.0
1.0
1.0
1.0
1.0
1.0
1.0
1.0
1.0
1.0
1.0
1.0
1.0
1.0
1.0
1.0
1.0
1.0
1.0
1.0
1.0
1.0
1.0
1.0
1.0
1.0
1.0
1.0
1.0
1.0
1.0
1.0
1.0
1.0
1.0
1.0
1.0
1.0
1.0
1.0
1.0
1.0
1.0
1.0
1.0
1.0
1.0
1.0
1.0
1.0
1.0
1.0
1.0
1.0
1.0
1.0
1.0
1.0
1.0
1.0
1.0
1.0
1.0
1.0
1.0
1.0
1.0
1.0
1.0
1.0
1.0
1.0
1.0
1.0
1.0
1.0
1.0
1.0
1.0
1.0
1.0
1.0
1.0
1.0
1.0
1.0
1.0
1.0
1.0
1.0
1.0
1.0
1.0
1.0
1.0
1.0
1.0
1.0
1.0
1.0
1.0
1.0
1.0
1.0
1.0
1.0
1.0
