# vtk DataFile Version 4.0
vtk output
ASCII
DATASET STRUCTURED_GRID
DIMENSIONS 5 20 2POINTS 200 float
0.0 0.0 2
1.0 0.0 2
1.0 0.0 2
2.0 0.0 2
3.0 0.0 2
0.0 0.25 2
1.0 0.25 2
1.0 0.25 2
2.0 0.25 2
3.0 0.25 2
0.0 0.5 2
1.0 0.5 2
1.0 0.5 2
2.0 0.5 2
3.0 0.5 2
0.0 0.75 2
1.0 0.75 2
1.0 0.75 2
2.0 0.75 2
3.0 0.75 2
0.0 1.0 2
1.0 1.0 2
1.0 1.0 2
2.0 1.0 2
3.0 1.0 2
0.0 1.25 2
1.0 1.25 2
1.0 1.25 2
2.0 1.25 2
3.0 1.25 2
0.0 1.5 2
1.0 1.5 2
1.0 1.5 2
2.0 1.5 2
3.0 1.5 2
0.0 1.75 2
1.0 1.75 2
1.0 1.75 2
2.0 1.75 2
3.0 1.75 2
0.0 2.0 2
1.0 2.0 2
1.0 2.0 2
2.0 2.0 2
3.0 2.0 2
0.0 2.25 2
1.0 2.25 2
1.0 2.25 2
2.0 2.25 2
3.0 2.25 2
0.0 2.5 2
1.0 2.5 2
1.0 2.5 2
2.0 2.5 2
3.0 2.5 2
0.0 2.75 2
1.0 2.75 2
1.0 2.75 2
2.0 2.75 2
3.0 2.75 2
0.0 3.0 2
1.0 3.0 2
1.0 3.0 2
2.0 3.0 2
3.0 3.0 2
0.0 3.25 2
1.0 3.25 2
1.0 3.25 2
2.0 3.25 2
3.0 3.25 2
0.0 3.5 2
1.0 3.5 2
1.0 3.5 2
2.0 3.5 2
3.0 3.5 2
0.0 3.75 2
1.0 3.75 2
1.0 3.75 2
2.0 3.75 2
3.0 3.75 2
0.0 4.0 2
1.0 4.0 2
1.0 4.0 2
2.0 4.0 2
3.0 4.0 2
0.0 4.25 2
1.0 4.25 2
1.0 4.25 2
2.0 4.25 2
3.0 4.25 2
0.0 4.5 2
1.0 4.5 2
1.0 4.5 2
2.0 4.5 2
3.0 4.5 2
0.0 4.75 2
1.0 4.75 2
1.0 4.75 2
2.0 4.75 2
3.0 4.75 2
0.0 0.0 3
1.0 0.0 3
1.0 0.0 3
2.0 0.0 3
3.0 0.0 3
0.0 0.25 3
1.0 0.25 3
1.0 0.25 3
2.0 0.25 3
3.0 0.25 3
0.0 0.5 3
1.0 0.5 3
1.0 0.5 3
2.0 0.5 3
3.0 0.5 3
0.0 0.75 3
1.0 0.75 3
1.0 0.75 3
2.0 0.75 3
3.0 0.75 3
0.0 1.0 3
1.0 1.0 3
1.0 1.0 3
2.0 1.0 3
3.0 1.0 3
0.0 1.25 3
1.0 1.25 3
1.0 1.25 3
2.0 1.25 3
3.0 1.25 3
0.0 1.5 3
1.0 1.5 3
1.0 1.5 3
2.0 1.5 3
3.0 1.5 3
0.0 1.75 3
1.0 1.75 3
1.0 1.75 3
2.0 1.75 3
3.0 1.75 3
0.0 2.0 3
1.0 2.0 3
1.0 2.0 3
2.0 2.0 3
3.0 2.0 3
0.0 2.25 3
1.0 2.25 3
1.0 2.25 3
2.0 2.25 3
3.0 2.25 3
0.0 2.5 3
1.0 2.5 3
1.0 2.5 3
2.0 2.5 3
3.0 2.5 3
0.0 2.75 3
1.0 2.75 3
1.0 2.75 3
2.0 2.75 3
3.0 2.75 3
0.0 3.0 3
1.0 3.0 3
1.0 3.0 3
2.0 3.0 3
3.0 3.0 3
0.0 3.25 3
1.0 3.25 3
1.0 3.25 3
2.0 3.25 3
3.0 3.25 3
0.0 3.5 3
1.0 3.5 3
1.0 3.5 3
2.0 3.5 3
3.0 3.5 3
0.0 3.75 3
1.0 3.75 3
1.0 3.75 3
2.0 3.75 3
3.0 3.75 3
0.0 4.0 3
1.0 4.0 3
1.0 4.0 3
2.0 4.0 3
3.0 4.0 3
0.0 4.25 3
1.0 4.25 3
1.0 4.25 3
2.0 4.25 3
3.0 4.25 3
0.0 4.5 3
1.0 4.5 3
1.0 4.5 3
2.0 4.5 3
3.0 4.5 3
0.0 4.75 3
1.0 4.75 3
1.0 4.75 3
2.0 4.75 3
3.0 4.75 3

POINT_DATA 200
SCALARS scalars float
LOOKUP_TABLE default
1.0
1.0
-1.0
1.0
1.0
1.0
1.0
-1.0
1.0
1.0
1.0
1.0
-1.0
1.0
1.0
1.0
1.0
-1.0
1.0
1.0
1.0
1.0
-1.0
1.0
1.0
1.0
1.0
-1.0
1.0
1.0
1.0
1.0
-1.0
1.0
1.0
1.0
1.0
-1.0
1.0
1.0
1.0
1.0
-1.0
1.0
1.0
1.0
1.0
-1.0
1.0
1.0
1.0
1.0
-1.0
1.0
1.0
1.0
1.0
-1.0
1.0
1.0
1.0
1.0
-1.0
1.0
1.0
1.0
1.0
-1.0
1.0
1.0
1.0
1.0
-1.0
1.0
1.0
1.0
1.0
-1.0
1.0
1.0
1.0
1.0
-1.0
1.0
1.0
1.0
1.0
-1.0
1.0
1.0
1.0
1.0
-1.0
1.0
1.0
1.0
1.0
-1.0
1.0
1.0
1.0
1.0
-1.0
1.0
1.0
1.0
1.0
-1.0
1.0
1.0
1.0
1.0
-1.0
1.0
1.0
1.0
1.0
-1.0
1.0
1.0
1.0
1.0
-1.0
1.0
1.0
1.0
1.0
-1.0
1.0
1.0
1.0
1.0
-1.0
1.0
1.0
1.0
1.0
-1.0
1.0
1.0
1.0
1.0
-1.0
1.0
1.0
1.0
1.0
-1.0
1.0
1.0
1.0
1.0
-1.0
1.0
1.0
1.0
1.0
-1.0
1.0
1.0
1.0
1.0
-1.0
1.0
1.0
1.0
1.0
-1.0
1.0
1.0
1.0
1.0
-1.0
1.0
1.0
1.0
1.0
-1.0
1.0
1.0
1.0
1.0
-1.0
1.0
1.0
1.0
1.0
-1.0
1.0
1.0
1.0
1.0
-1.0
1.0
1.0
1.0
1.0
-1.0
1.0
1.0
