# vtk DataFile Version 4.0
vtk output
ASCII
DATASET UNSTRUCTURED_GRID
POINTS 200 float
0.0 0.0 0
0.0 0.0 1
0.0 0.25 0
0.0 0.25 1
0.0 0.5 0
0.0 0.5 1
0.0 0.75 0
0.0 0.75 1
0.0 1.0 0
0.0 1.0 1
0.0 1.25 0
0.0 1.25 1
0.0 1.5 0
0.0 1.5 1
0.0 1.75 0
0.0 1.75 1
0.0 2.0 0
0.0 2.0 1
0.0 2.25 0
0.0 2.25 1
0.0 2.5 0
0.0 2.5 1
0.0 2.75 0
0.0 2.75 1
0.0 3.0 0
0.0 3.0 1
0.0 3.25 0
0.0 3.25 1
0.0 3.5 0
0.0 3.5 1
0.0 3.75 0
0.0 3.75 1
0.0 4.0 0
0.0 4.0 1
0.0 4.25 0
0.0 4.25 1
0.0 4.5 0
0.0 4.5 1
0.0 4.75 0
0.0 4.75 1
1.0 0.0 0
1.0 0.0 1
1.0 0.25 0
1.0 0.25 1
1.0 0.5 0
1.0 0.5 1
1.0 0.75 0
1.0 0.75 1
1.0 1.0 0
1.0 1.0 1
1.0 1.25 0
1.0 1.25 1
1.0 1.5 0
1.0 1.5 1
1.0 1.75 0
1.0 1.75 1
1.0 2.0 0
1.0 2.0 1
1.0 2.25 0
1.0 2.25 1
1.0 2.5 0
1.0 2.5 1
1.0 2.75 0
1.0 2.75 1
1.0 3.0 0
1.0 3.0 1
1.0 3.25 0
1.0 3.25 1
1.0 3.5 0
1.0 3.5 1
1.0 3.75 0
1.0 3.75 1
1.0 4.0 0
1.0 4.0 1
1.0 4.25 0
1.0 4.25 1
1.0 4.5 0
1.0 4.5 1
1.0 4.75 0
1.0 4.75 1
1.0 0.0 0
1.0 0.0 1
1.0 0.25 0
1.0 0.25 1
1.0 0.5 0
1.0 0.5 1
1.0 0.75 0
1.0 0.75 1
1.0 1.0 0
1.0 1.0 1
1.0 1.25 0
1.0 1.25 1
1.0 1.5 0
1.0 1.5 1
1.0 1.75 0
1.0 1.75 1
1.0 2.0 0
1.0 2.0 1
1.0 2.25 0
1.0 2.25 1
1.0 2.5 0
1.0 2.5 1
1.0 2.75 0
1.0 2.75 1
1.0 3.0 0
1.0 3.0 1
1.0 3.25 0
1.0 3.25 1
1.0 3.5 0
1.0 3.5 1
1.0 3.75 0
1.0 3.75 1
1.0 4.0 0
1.0 4.0 1
1.0 4.25 0
1.0 4.25 1
1.0 4.5 0
1.0 4.5 1
1.0 4.75 0
1.0 4.75 1
2.0 0.0 0
2.0 0.0 1
2.0 0.25 0
2.0 0.25 1
2.0 0.5 0
2.0 0.5 1
2.0 0.75 0
2.0 0.75 1
2.0 1.0 0
2.0 1.0 1
2.0 1.25 0
2.0 1.25 1
2.0 1.5 0
2.0 1.5 1
2.0 1.75 0
2.0 1.75 1
2.0 2.0 0
2.0 2.0 1
2.0 2.25 0
2.0 2.25 1
2.0 2.5 0
2.0 2.5 1
2.0 2.75 0
2.0 2.75 1
2.0 3.0 0
2.0 3.0 1
2.0 3.25 0
2.0 3.25 1
2.0 3.5 0
2.0 3.5 1
2.0 3.75 0
2.0 3.75 1
2.0 4.0 0
2.0 4.0 1
2.0 4.25 0
2.0 4.25 1
2.0 4.5 0
2.0 4.5 1
2.0 4.75 0
2.0 4.75 1
3.0 0.0 0
3.0 0.0 1
3.0 0.25 0
3.0 0.25 1
3.0 0.5 0
3.0 0.5 1
3.0 0.75 0
3.0 0.75 1
3.0 1.0 0
3.0 1.0 1
3.0 1.25 0
3.0 1.25 1
3.0 1.5 0
3.0 1.5 1
3.0 1.75 0
3.0 1.75 1
3.0 2.0 0
3.0 2.0 1
3.0 2.25 0
3.0 2.25 1
3.0 2.5 0
3.0 2.5 1
3.0 2.75 0
3.0 2.75 1
3.0 3.0 0
3.0 3.0 1
3.0 3.25 0
3.0 3.25 1
3.0 3.5 0
3.0 3.5 1
3.0 3.75 0
3.0 3.75 1
3.0 4.0 0
3.0 4.0 1
3.0 4.25 0
3.0 4.25 1
3.0 4.5 0
3.0 4.5 1
3.0 4.75 0
3.0 4.75 1

CELLS 76 684
8 0 1 2 3 40 41 42 43
8 2 3 4 5 42 43 44 45
8 4 5 6 7 44 45 46 47
8 6 7 8 9 46 47 48 49
8 8 9 10 11 48 49 50 51
8 10 11 12 13 50 51 52 53
8 12 13 14 15 52 53 54 55
8 14 15 16 17 54 55 56 57
8 16 17 18 19 56 57 58 59
8 18 19 20 21 58 59 60 61
8 20 21 22 23 60 61 62 63
8 22 23 24 25 62 63 64 65
8 24 25 26 27 64 65 66 67
8 26 27 28 29 66 67 68 69
8 28 29 30 31 68 69 70 71
8 30 31 32 33 70 71 72 73
8 32 33 34 35 72 73 74 75
8 34 35 36 37 74 75 76 77
8 36 37 38 39 76 77 78 79
8 40 41 42 43 80 81 82 83
8 42 43 44 45 82 83 84 85
8 44 45 46 47 84 85 86 87
8 46 47 48 49 86 87 88 89
8 48 49 50 51 88 89 90 91
8 50 51 52 53 90 91 92 93
8 52 53 54 55 92 93 94 95
8 54 55 56 57 94 95 96 97
8 56 57 58 59 96 97 98 99
8 58 59 60 61 98 99 100 101
8 60 61 62 63 100 101 102 103
8 62 63 64 65 102 103 104 105
8 64 65 66 67 104 105 106 107
8 66 67 68 69 106 107 108 109
8 68 69 70 71 108 109 110 111
8 70 71 72 73 110 111 112 113
8 72 73 74 75 112 113 114 115
8 74 75 76 77 114 115 116 117
8 76 77 78 79 116 117 118 119
8 80 81 82 83 120 121 122 123
8 82 83 84 85 122 123 124 125
8 84 85 86 87 124 125 126 127
8 86 87 88 89 126 127 128 129
8 88 89 90 91 128 129 130 131
8 90 91 92 93 130 131 132 133
8 92 93 94 95 132 133 134 135
8 94 95 96 97 134 135 136 137
8 96 97 98 99 136 137 138 139
8 98 99 100 101 138 139 140 141
8 100 101 102 103 140 141 142 143
8 102 103 104 105 142 143 144 145
8 104 105 106 107 144 145 146 147
8 106 107 108 109 146 147 148 149
8 108 109 110 111 148 149 150 151
8 110 111 112 113 150 151 152 153
8 112 113 114 115 152 153 154 155
8 114 115 116 117 154 155 156 157
8 116 117 118 119 156 157 158 159
8 120 121 122 123 160 161 162 163
8 122 123 124 125 162 163 164 165
8 124 125 126 127 164 165 166 167
8 126 127 128 129 166 167 168 169
8 128 129 130 131 168 169 170 171
8 130 131 132 133 170 171 172 173
8 132 133 134 135 172 173 174 175
8 134 135 136 137 174 175 176 177
8 136 137 138 139 176 177 178 179
8 138 139 140 141 178 179 180 181
8 140 141 142 143 180 181 182 183
8 142 143 144 145 182 183 184 185
8 144 145 146 147 184 185 186 187
8 146 147 148 149 186 187 188 189
8 148 149 150 151 188 189 190 191
8 150 151 152 153 190 191 192 193
8 152 153 154 155 192 193 194 195
8 154 155 156 157 194 195 196 197
8 156 157 158 159 196 197 198 199

CELL_TYPES 76
11
11
11
11
11
11
11
11
11
11
11
11
11
11
11
11
11
11
11
11
11
11
11
11
11
11
11
11
11
11
11
11
11
11
11
11
11
11
11
11
11
11
11
11
11
11
11
11
11
11
11
11
11
11
11
11
11
11
11
11
11
11
11
11
11
11
11
11
11
11
11
11
11
11
11
11

POINT_DATA 200
SCALARS scalars float
LOOKUP_TABLE default
1.0
1.0
1.0
1.0
1.0
1.0
1.0
1.0
1.0
1.0
1.0
1.0
1.0
1.0
1.0
1.0
1.0
1.0
1.0
1.0
1.0
1.0
1.0
1.0
1.0
1.0
1.0
1.0
1.0
1.0
1.0
1.0
1.0
1.0
1.0
1.0
1.0
1.0
1.0
1.0
1.0
1.0
1.0
1.0
1.0
1.0
1.0
1.0
1.0
1.0
1.0
1.0
1.0
1.0
1.0
1.0
1.0
1.0
1.0
1.0
1.0
1.0
1.0
1.0
1.0
1.0
1.0
1.0
1.0
1.0
1.0
1.0
1.0
1.0
1.0
1.0
1.0
1.0
1.0
1.0
-1.0
-1.0
-1.0
-1.0
-1.0
-1.0
-1.0
-1.0
-1.0
-1.0
-1.0
-1.0
-1.0
-1.0
-1.0
-1.0
-1.0
-1.0
-1.0
-1.0
-1.0
-1.0
-1.0
-1.0
-1.0
-1.0
-1.0
-1.0
-1.0
-1.0
-1.0
-1.0
-1.0
-1.0
-1.0
-1.0
-1.0
-1.0
-1.0
-1.0
1.0
1.0
1.0
1.0
1.0
1.0
1.0
1.0
1.0
1.0
1.0
1.0
1.0
1.0
1.0
1.0
1.0
1.0
1.0
1.0
1.0
1.0
1.0
1.0
1.0
1.0
1.0
1.0
1.0
1.0
1.0
1.0
1.0
1.0
1.0
1.0
1.0
1.0
1.0
1.0
1.0
1.0
1.0
1.0
1.0
1.0
1.0
1.0
1.0
1.0
1.0
1.0
1.0
1.0
1.0
1.0
1.0
1.0
1.0
1.0
1.0
1.0
1.0
1.0
1.0
1.0
1.0
1.0
1.0
1.0
1.0
1.0
1.0
1.0
1.0
1.0
1.0
1.0
1.0
1.0
