# vtk DataFile Version 4.0
vtk output
ASCII
DATASET UNSTRUCTURED_GRID
POINTS 240 float
0.0 0.0 0
0.0 0.0 1
0.0 0.25 0
0.0 0.25 1
0.0 0.5 0
0.0 0.5 1
0.0 0.75 0
0.0 0.75 1
0.0 1.0 0
0.0 1.0 1
0.0 1.25 0
0.0 1.25 1
0.0 1.5 0
0.0 1.5 1
0.0 1.75 0
0.0 1.75 1
0.0 2.0 0
0.0 2.0 1
0.0 2.25 0
0.0 2.25 1
0.0 2.5 0
0.0 2.5 1
0.0 2.75 0
0.0 2.75 1
0.0 3.0 0
0.0 3.0 1
0.0 3.25 0
0.0 3.25 1
0.0 3.5 0
0.0 3.5 1
0.0 3.75 0
0.0 3.75 1
0.0 4.0 0
0.0 4.0 1
0.0 4.25 0
0.0 4.25 1
0.0 4.5 0
0.0 4.5 1
0.0 4.75 0
0.0 4.75 1
0.5 0.0 0
0.5 0.0 1
0.5 0.25 0
0.5 0.25 1
0.5 0.5 0
0.5 0.5 1
0.5 0.75 0
0.5 0.75 1
0.5 1.0 0
0.5 1.0 1
0.5 1.25 0
0.5 1.25 1
0.5 1.5 0
0.5 1.5 1
0.5 1.75 0
0.5 1.75 1
0.5 2.0 0
0.5 2.0 1
0.5 2.25 0
0.5 2.25 1
0.5 2.5 0
0.5 2.5 1
0.5 2.75 0
0.5 2.75 1
0.5 3.0 0
0.5 3.0 1
0.5 3.25 0
0.5 3.25 1
0.5 3.5 0
0.5 3.5 1
0.5 3.75 0
0.5 3.75 1
0.5 4.0 0
0.5 4.0 1
0.5 4.25 0
0.5 4.25 1
0.5 4.5 0
0.5 4.5 1
0.5 4.75 0
0.5 4.75 1
1.0 0.0 0
1.0 0.0 1
1.0 0.25 0
1.0 0.25 1
1.0 0.5 0
1.0 0.5 1
1.0 0.75 0
1.0 0.75 1
1.0 1.0 0
1.0 1.0 1
1.0 1.25 0
1.0 1.25 1
1.0 1.5 0
1.0 1.5 1
1.0 1.75 0
1.0 1.75 1
1.0 2.0 0
1.0 2.0 1
1.0 2.25 0
1.0 2.25 1
1.0 2.5 0
1.0 2.5 1
1.0 2.75 0
1.0 2.75 1
1.0 3.0 0
1.0 3.0 1
1.0 3.25 0
1.0 3.25 1
1.0 3.5 0
1.0 3.5 1
1.0 3.75 0
1.0 3.75 1
1.0 4.0 0
1.0 4.0 1
1.0 4.25 0
1.0 4.25 1
1.0 4.5 0
1.0 4.5 1
1.0 4.75 0
1.0 4.75 1
1.5 0.0 0
1.5 0.0 1
1.5 0.25 0
1.5 0.25 1
1.5 0.5 0
1.5 0.5 1
1.5 0.75 0
1.5 0.75 1
1.5 1.0 0
1.5 1.0 1
1.5 1.25 0
1.5 1.25 1
1.5 1.5 0
1.5 1.5 1
1.5 1.75 0
1.5 1.75 1
1.5 2.0 0
1.5 2.0 1
1.5 2.25 0
1.5 2.25 1
1.5 2.5 0
1.5 2.5 1
1.5 2.75 0
1.5 2.75 1
1.5 3.0 0
1.5 3.0 1
1.5 3.25 0
1.5 3.25 1
1.5 3.5 0
1.5 3.5 1
1.5 3.75 0
1.5 3.75 1
1.5 4.0 0
1.5 4.0 1
1.5 4.25 0
1.5 4.25 1
1.5 4.5 0
1.5 4.5 1
1.5 4.75 0
1.5 4.75 1
2.0 0.0 0
2.0 0.0 1
2.0 0.25 0
2.0 0.25 1
2.0 0.5 0
2.0 0.5 1
2.0 0.75 0
2.0 0.75 1
2.0 1.0 0
2.0 1.0 1
2.0 1.25 0
2.0 1.25 1
2.0 1.5 0
2.0 1.5 1
2.0 1.75 0
2.0 1.75 1
2.0 2.0 0
2.0 2.0 1
2.0 2.25 0
2.0 2.25 1
2.0 2.5 0
2.0 2.5 1
2.0 2.75 0
2.0 2.75 1
2.0 3.0 0
2.0 3.0 1
2.0 3.25 0
2.0 3.25 1
2.0 3.5 0
2.0 3.5 1
2.0 3.75 0
2.0 3.75 1
2.0 4.0 0
2.0 4.0 1
2.0 4.25 0
2.0 4.25 1
2.0 4.5 0
2.0 4.5 1
2.0 4.75 0
2.0 4.75 1
2.5 0.0 0
2.5 0.0 1
2.5 0.25 0
2.5 0.25 1
2.5 0.5 0
2.5 0.5 1
2.5 0.75 0
2.5 0.75 1
2.5 1.0 0
2.5 1.0 1
2.5 1.25 0
2.5 1.25 1
2.5 1.5 0
2.5 1.5 1
2.5 1.75 0
2.5 1.75 1
2.5 2.0 0
2.5 2.0 1
2.5 2.25 0
2.5 2.25 1
2.5 2.5 0
2.5 2.5 1
2.5 2.75 0
2.5 2.75 1
2.5 3.0 0
2.5 3.0 1
2.5 3.25 0
2.5 3.25 1
2.5 3.5 0
2.5 3.5 1
2.5 3.75 0
2.5 3.75 1
2.5 4.0 0
2.5 4.0 1
2.5 4.25 0
2.5 4.25 1
2.5 4.5 0
2.5 4.5 1
2.5 4.75 0
2.5 4.75 1

CELLS 95 855
8 0 1 2 3 40 41 42 43
8 2 3 4 5 42 43 44 45
8 4 5 6 7 44 45 46 47
8 6 7 8 9 46 47 48 49
8 8 9 10 11 48 49 50 51
8 10 11 12 13 50 51 52 53
8 12 13 14 15 52 53 54 55
8 14 15 16 17 54 55 56 57
8 16 17 18 19 56 57 58 59
8 18 19 20 21 58 59 60 61
8 20 21 22 23 60 61 62 63
8 22 23 24 25 62 63 64 65
8 24 25 26 27 64 65 66 67
8 26 27 28 29 66 67 68 69
8 28 29 30 31 68 69 70 71
8 30 31 32 33 70 71 72 73
8 32 33 34 35 72 73 74 75
8 34 35 36 37 74 75 76 77
8 36 37 38 39 76 77 78 79
8 40 41 42 43 80 81 82 83
8 42 43 44 45 82 83 84 85
8 44 45 46 47 84 85 86 87
8 46 47 48 49 86 87 88 89
8 48 49 50 51 88 89 90 91
8 50 51 52 53 90 91 92 93
8 52 53 54 55 92 93 94 95
8 54 55 56 57 94 95 96 97
8 56 57 58 59 96 97 98 99
8 58 59 60 61 98 99 100 101
8 60 61 62 63 100 101 102 103
8 62 63 64 65 102 103 104 105
8 64 65 66 67 104 105 106 107
8 66 67 68 69 106 107 108 109
8 68 69 70 71 108 109 110 111
8 70 71 72 73 110 111 112 113
8 72 73 74 75 112 113 114 115
8 74 75 76 77 114 115 116 117
8 76 77 78 79 116 117 118 119
8 80 81 82 83 120 121 122 123
8 82 83 84 85 122 123 124 125
8 84 85 86 87 124 125 126 127
8 86 87 88 89 126 127 128 129
8 88 89 90 91 128 129 130 131
8 90 91 92 93 130 131 132 133
8 92 93 94 95 132 133 134 135
8 94 95 96 97 134 135 136 137
8 96 97 98 99 136 137 138 139
8 98 99 100 101 138 139 140 141
8 100 101 102 103 140 141 142 143
8 102 103 104 105 142 143 144 145
8 104 105 106 107 144 145 146 147
8 106 107 108 109 146 147 148 149
8 108 109 110 111 148 149 150 151
8 110 111 112 113 150 151 152 153
8 112 113 114 115 152 153 154 155
8 114 115 116 117 154 155 156 157
8 116 117 118 119 156 157 158 159
8 120 121 122 123 160 161 162 163
8 122 123 124 125 162 163 164 165
8 124 125 126 127 164 165 166 167
8 126 127 128 129 166 167 168 169
8 128 129 130 131 168 169 170 171
8 130 131 132 133 170 171 172 173
8 132 133 134 135 172 173 174 175
8 134 135 136 137 174 175 176 177
8 136 137 138 139 176 177 178 179
8 138 139 140 141 178 179 180 181
8 140 141 142 143 180 181 182 183
8 142 143 144 145 182 183 184 185
8 144 145 146 147 184 185 186 187
8 146 147 148 149 186 187 188 189
8 148 149 150 151 188 189 190 191
8 150 151 152 153 190 191 192 193
8 152 153 154 155 192 193 194 195
8 154 155 156 157 194 195 196 197
8 156 157 158 159 196 197 198 199
8 160 161 162 163 200 201 202 203
8 162 163 164 165 202 203 204 205
8 164 165 166 167 204 205 206 207
8 166 167 168 169 206 207 208 209
8 168 169 170 171 208 209 210 211
8 170 171 172 173 210 211 212 213
8 172 173 174 175 212 213 214 215
8 174 175 176 177 214 215 216 217
8 176 177 178 179 216 217 218 219
8 178 179 180 181 218 219 220 221
8 180 181 182 183 220 221 222 223
8 182 183 184 185 222 223 224 225
8 184 185 186 187 224 225 226 227
8 186 187 188 189 226 227 228 229
8 188 189 190 191 228 229 230 231
8 190 191 192 193 230 231 232 233
8 192 193 194 195 232 233 234 235
8 194 195 196 197 234 235 236 237
8 196 197 198 199 236 237 238 239

CELL_TYPES 95
11
11
11
11
11
11
11
11
11
11
11
11
11
11
11
11
11
11
11
11
11
11
11
11
11
11
11
11
11
11
11
11
11
11
11
11
11
11
11
11
11
11
11
11
11
11
11
11
11
11
11
11
11
11
11
11
11
11
11
11
11
11
11
11
11
11
11
11
11
11
11
11
11
11
11
11
11
11
11
11
11
11
11
11
11
11
11
11
11
11
11
11
11
11
11

POINT_DATA 240
SCALARS scalars float
LOOKUP_TABLE default
0.523422720377
0.438009105331
0.922233808288
0.00590843843149
0.544304790109
0.382229387837
0.181071485003
0.173927231806
0.0106577713508
0.25362242305
0.447900435519
0.00437573684074
0.201817338888
0.664986577149
0.188786825547
0.0488340427609
0.10973250955
0.396924517713
0.725359674291
0.545314469193
0.788272691005
0.663846426481
0.461310828932
0.136377396421
0.180735394662
0.333221834765
0.993501171441
0.56157062017
0.390596519119
0.139374738234
0.275904898312
0.0372005284948
0.988904820934
0.941055975117
0.650768924174
0.472738285072
0.420864742999
0.837059401513
0.944901727705
0.214118165597
0.582983789627
0.945850759419
0.204922773583
0.105259462979
0.870911262999
0.0338791770753
0.279172525461
0.315617247768
0.319982077879
0.889892002655
0.0784360833382
0.54677824485
0.258228406439
0.595028182836
0.0708126622621
0.779834625219
0.507309139277
0.00255074419301
0.907497803343
0.0190362441209
0.116659194093
0.0719319258898
0.580439270042
0.339071473177
0.462871387648
0.400771545624
0.37089672416
0.783416258134
0.482340430297
0.815997636309
0.125097016682
0.382095954098
0.940864519642
0.742357052681
0.371541345115
0.441350829713
0.0919367911622
0.154047379067
0.372132637212
0.224977238372
0.115775631518
0.750233245341
0.138826340167
0.459615240014
0.973565651568
0.313126452062
0.759098174196
0.737726314572
0.252104323252
0.336087908705
0.194803958867
0.631053105973
0.129323955224
0.342973344406
0.520326741755
0.374221665219
0.298968014155
0.633589090114
0.163243355975
0.114442200401
0.222278465714
0.181062334798
0.524146348145
0.851956548518
0.824726451412
0.333019710697
0.4071993924
0.400119215918
0.746839852336
0.157773090503
0.743482681481
0.538169281407
0.818559315367
0.697358719847
0.508700191117
0.614588855575
0.571347590283
0.472256987297
0.0416699480919
0.189491678275
0.425637583843
0.767717803837
0.135850317775
0.850531072997
0.940252086988
0.727806794313
0.928010566333
0.564986291868
0.237343830433
0.891345009905
0.370819199257
0.195396566588
0.130321123458
0.44858216809
0.0434594308902
0.402818509851
0.192776375517
0.287621456209
0.10938281822
0.094994549183
0.314628830271
0.768548963397
0.1872239264
0.242684603505
0.973563375753
0.0523060599158
0.47992513763
0.681149940093
0.775601244015
0.382625795304
0.516105462734
0.513983819992
0.838860043363
0.904542026776
0.438686122516
0.0673403828596
0.921954247402
0.528817411023
0.451639168493
0.582440722207
0.710548129076
0.542483568521
0.0719950883054
0.346302878414
0.444221003771
0.537174610672
0.37318470586
0.39016938805
0.224447123495
0.484905262047
0.859094637419
0.842145197051
0.0583470643411
0.143147358504
0.994960043718
0.469130405613
0.492195914322
0.979658703967
0.390827995578
0.0894160845819
0.796701602571
0.220384176975
0.411459486636
0.584249407194
0.758474624151
0.939995348546
0.668777688787
0.508602085075
0.148077922162
0.24407323437
0.550096967479
0.174893493703
0.600455636151
0.157154263906
0.39100872064
0.559313149799
0.380742584262
0.45354767485
0.232586849514
0.258889273649
0.366017113333
0.775447168226
0.754368235537
0.926545590674
0.421006459065
0.18869942489
0.607669103867
0.896230035875
0.0194305772908
0.70252393183
0.567474462629
0.996356460575
0.354014926394
0.576575193204
0.987833918232
0.0291977667859
0.323287141517
0.788188714516
0.57398004405
0.671303504365
0.959702023454
0.473223073472
0.0195820560351
0.702973380367
0.6139072829
0.0571035366808
0.35844923657
0.881944559225
0.789052480208
0.909965419274
0.34685756904
0.545588181258
0.746697137164
0.914569443128
0.0837559938602
0.866598119263
0.093961563179
0.97663461519
0.920049304087
0.626462305089
