# vtk DataFile Version 4.0
vtk output
ASCII
DATASET UNSTRUCTURED_GRID
POINTS 240 float
0.0 0.0 6
0.0 0.0 7
0.0 0.25 6
0.0 0.25 7
0.0 0.5 6
0.0 0.5 7
0.0 0.75 6
0.0 0.75 7
0.0 1.0 6
0.0 1.0 7
0.0 1.25 6
0.0 1.25 7
0.0 1.5 6
0.0 1.5 7
0.0 1.75 6
0.0 1.75 7
0.0 2.0 6
0.0 2.0 7
0.0 2.25 6
0.0 2.25 7
0.0 2.5 6
0.0 2.5 7
0.0 2.75 6
0.0 2.75 7
0.0 3.0 6
0.0 3.0 7
0.0 3.25 6
0.0 3.25 7
0.0 3.5 6
0.0 3.5 7
0.0 3.75 6
0.0 3.75 7
0.0 4.0 6
0.0 4.0 7
0.0 4.25 6
0.0 4.25 7
0.0 4.5 6
0.0 4.5 7
0.0 4.75 6
0.0 4.75 7
0.5 0.0 6
0.5 0.0 7
0.5 0.25 6
0.5 0.25 7
0.5 0.5 6
0.5 0.5 7
0.5 0.75 6
0.5 0.75 7
0.5 1.0 6
0.5 1.0 7
0.5 1.25 6
0.5 1.25 7
0.5 1.5 6
0.5 1.5 7
0.5 1.75 6
0.5 1.75 7
0.5 2.0 6
0.5 2.0 7
0.5 2.25 6
0.5 2.25 7
0.5 2.5 6
0.5 2.5 7
0.5 2.75 6
0.5 2.75 7
0.5 3.0 6
0.5 3.0 7
0.5 3.25 6
0.5 3.25 7
0.5 3.5 6
0.5 3.5 7
0.5 3.75 6
0.5 3.75 7
0.5 4.0 6
0.5 4.0 7
0.5 4.25 6
0.5 4.25 7
0.5 4.5 6
0.5 4.5 7
0.5 4.75 6
0.5 4.75 7
1.0 0.0 6
1.0 0.0 7
1.0 0.25 6
1.0 0.25 7
1.0 0.5 6
1.0 0.5 7
1.0 0.75 6
1.0 0.75 7
1.0 1.0 6
1.0 1.0 7
1.0 1.25 6
1.0 1.25 7
1.0 1.5 6
1.0 1.5 7
1.0 1.75 6
1.0 1.75 7
1.0 2.0 6
1.0 2.0 7
1.0 2.25 6
1.0 2.25 7
1.0 2.5 6
1.0 2.5 7
1.0 2.75 6
1.0 2.75 7
1.0 3.0 6
1.0 3.0 7
1.0 3.25 6
1.0 3.25 7
1.0 3.5 6
1.0 3.5 7
1.0 3.75 6
1.0 3.75 7
1.0 4.0 6
1.0 4.0 7
1.0 4.25 6
1.0 4.25 7
1.0 4.5 6
1.0 4.5 7
1.0 4.75 6
1.0 4.75 7
1.5 0.0 6
1.5 0.0 7
1.5 0.25 6
1.5 0.25 7
1.5 0.5 6
1.5 0.5 7
1.5 0.75 6
1.5 0.75 7
1.5 1.0 6
1.5 1.0 7
1.5 1.25 6
1.5 1.25 7
1.5 1.5 6
1.5 1.5 7
1.5 1.75 6
1.5 1.75 7
1.5 2.0 6
1.5 2.0 7
1.5 2.25 6
1.5 2.25 7
1.5 2.5 6
1.5 2.5 7
1.5 2.75 6
1.5 2.75 7
1.5 3.0 6
1.5 3.0 7
1.5 3.25 6
1.5 3.25 7
1.5 3.5 6
1.5 3.5 7
1.5 3.75 6
1.5 3.75 7
1.5 4.0 6
1.5 4.0 7
1.5 4.25 6
1.5 4.25 7
1.5 4.5 6
1.5 4.5 7
1.5 4.75 6
1.5 4.75 7
2.0 0.0 6
2.0 0.0 7
2.0 0.25 6
2.0 0.25 7
2.0 0.5 6
2.0 0.5 7
2.0 0.75 6
2.0 0.75 7
2.0 1.0 6
2.0 1.0 7
2.0 1.25 6
2.0 1.25 7
2.0 1.5 6
2.0 1.5 7
2.0 1.75 6
2.0 1.75 7
2.0 2.0 6
2.0 2.0 7
2.0 2.25 6
2.0 2.25 7
2.0 2.5 6
2.0 2.5 7
2.0 2.75 6
2.0 2.75 7
2.0 3.0 6
2.0 3.0 7
2.0 3.25 6
2.0 3.25 7
2.0 3.5 6
2.0 3.5 7
2.0 3.75 6
2.0 3.75 7
2.0 4.0 6
2.0 4.0 7
2.0 4.25 6
2.0 4.25 7
2.0 4.5 6
2.0 4.5 7
2.0 4.75 6
2.0 4.75 7
2.5 0.0 6
2.5 0.0 7
2.5 0.25 6
2.5 0.25 7
2.5 0.5 6
2.5 0.5 7
2.5 0.75 6
2.5 0.75 7
2.5 1.0 6
2.5 1.0 7
2.5 1.25 6
2.5 1.25 7
2.5 1.5 6
2.5 1.5 7
2.5 1.75 6
2.5 1.75 7
2.5 2.0 6
2.5 2.0 7
2.5 2.25 6
2.5 2.25 7
2.5 2.5 6
2.5 2.5 7
2.5 2.75 6
2.5 2.75 7
2.5 3.0 6
2.5 3.0 7
2.5 3.25 6
2.5 3.25 7
2.5 3.5 6
2.5 3.5 7
2.5 3.75 6
2.5 3.75 7
2.5 4.0 6
2.5 4.0 7
2.5 4.25 6
2.5 4.25 7
2.5 4.5 6
2.5 4.5 7
2.5 4.75 6
2.5 4.75 7
CELL_TYPES 0

POINT_DATA 240
SCALARS scalars float
LOOKUP_TABLE default
0.523422720377
0.438009105331
0.922233808288
0.00590843843149
0.544304790109
0.382229387837
0.181071485003
0.173927231806
0.0106577713508
0.25362242305
0.447900435519
0.00437573684074
0.201817338888
0.664986577149
0.188786825547
0.0488340427609
0.10973250955
0.396924517713
0.725359674291
0.545314469193
0.788272691005
0.663846426481
0.461310828932
0.136377396421
0.180735394662
0.333221834765
0.993501171441
0.56157062017
0.390596519119
0.139374738234
0.275904898312
0.0372005284948
0.988904820934
0.941055975117
0.650768924174
0.472738285072
0.420864742999
0.837059401513
0.944901727705
0.214118165597
0.582983789627
0.945850759419
0.204922773583
0.105259462979
0.870911262999
0.0338791770753
0.279172525461
0.315617247768
0.319982077879
0.889892002655
0.0784360833382
0.54677824485
0.258228406439
0.595028182836
0.0708126622621
0.779834625219
0.507309139277
0.00255074419301
0.907497803343
0.0190362441209
0.116659194093
0.0719319258898
0.580439270042
0.339071473177
0.462871387648
0.400771545624
0.37089672416
0.783416258134
0.482340430297
0.815997636309
0.125097016682
0.382095954098
0.940864519642
0.742357052681
0.371541345115
0.441350829713
0.0919367911622
0.154047379067
0.372132637212
0.224977238372
0.115775631518
0.750233245341
0.138826340167
0.459615240014
0.973565651568
0.313126452062
0.759098174196
0.737726314572
0.252104323252
0.336087908705
0.194803958867
0.631053105973
0.129323955224
0.342973344406
0.520326741755
0.374221665219
0.298968014155
0.633589090114
0.163243355975
0.114442200401
0.222278465714
0.181062334798
0.524146348145
0.851956548518
0.824726451412
0.333019710697
0.4071993924
0.400119215918
0.746839852336
0.157773090503
0.743482681481
0.538169281407
0.818559315367
0.697358719847
0.508700191117
0.614588855575
0.571347590283
0.472256987297
0.0416699480919
0.189491678275
0.425637583843
0.767717803837
0.135850317775
0.850531072997
0.940252086988
0.727806794313
0.928010566333
0.564986291868
0.237343830433
0.891345009905
0.370819199257
0.195396566588
0.130321123458
0.44858216809
0.0434594308902
0.402818509851
0.192776375517
0.287621456209
0.10938281822
0.094994549183
0.314628830271
0.768548963397
0.1872239264
0.242684603505
0.973563375753
0.0523060599158
0.47992513763
0.681149940093
0.775601244015
0.382625795304
0.516105462734
0.513983819992
0.838860043363
0.904542026776
0.438686122516
0.0673403828596
0.921954247402
0.528817411023
0.451639168493
0.582440722207
0.710548129076
0.542483568521
0.0719950883054
0.346302878414
0.444221003771
0.537174610672
0.37318470586
0.39016938805
0.224447123495
0.484905262047
0.859094637419
0.842145197051
0.0583470643411
0.143147358504
0.994960043718
0.469130405613
0.492195914322
0.979658703967
0.390827995578
0.0894160845819
0.796701602571
0.220384176975
0.411459486636
0.584249407194
0.758474624151
0.939995348546
0.668777688787
0.508602085075
0.148077922162
0.24407323437
0.550096967479
0.174893493703
0.600455636151
0.157154263906
0.39100872064
0.559313149799
0.380742584262
0.45354767485
0.232586849514
0.258889273649
0.366017113333
0.775447168226
0.754368235537
0.926545590674
0.421006459065
0.18869942489
0.607669103867
0.896230035875
0.0194305772908
0.70252393183
0.567474462629
0.996356460575
0.354014926394
0.576575193204
0.987833918232
0.0291977667859
0.323287141517
0.788188714516
0.57398004405
0.671303504365
0.959702023454
0.473223073472
0.0195820560351
0.702973380367
0.6139072829
0.0571035366808
0.35844923657
0.881944559225
0.789052480208
0.909965419274
0.34685756904
0.545588181258
0.746697137164
0.914569443128
0.0837559938602
0.866598119263
0.093961563179
0.97663461519
0.920049304087
0.626462305089
